
 Working directory              : /scratch/molpro/JOB
 Global scratch directory       : /scratch/molpro/JOB
 Wavefunction directory         : /home/user/wfu/
 Main file repository           : /scratch/molpro/JOB

 id        : dana

 Nodes     nprocs
 n019         1
 GA implementation: MPI file
 GA implementation (serial work in mppx): MPI file

 Using customized tuning parameters: mindgm=1; mindgv=20; mindgc=4; mindgr=1; noblas=0; minvec=7
 default implementation of scratch files=df  


 Variables initialized (1025), CPU time= 0.00 sec
 ***,hydrazine
 memory,752,m;
 
 geometry={angstrom;
 N       0.00024300    0.42354500    0.00000000
 H      -0.80358900   -0.21131100   -0.00000000
 H       0.80334600   -0.21223300    0.00000000}
 
 basis=cc-pvtz
 
 {rhf;
 maxit,1000;
 wf,9,2,1}
 
 {casscf;
 wf,9,2,1;
 }
 
 {mrci;
 wf,9,2,1;
 }
 
 Commands initialized (840), CPU time= 0.01 sec, 684 directives.
 Default parameters read. Elapsed time= 0.13 sec

 Checking input...
 Passed
1


                                         ***  PROGRAM SYSTEM MOLPRO  ***
                                       Copyright, TTI GmbH Stuttgart, 2015
                                    Version 2022.3 linked Wed Nov 30 13:40:34 2022


 **********************************************************************************************************************************
 LABEL *   hydraz                                                                        
  64 bit serial version                                                                  DATE: 10-Jan-24          TIME: 16:39:55  
 **********************************************************************************************************************************

 SHA1:             e31ec9a5ea85254ab76f59d122cbdd51c71cf98b
 **********************************************************************************************************************************

 Memory per process:       752 MW
 Total memory per node:    752 MW

 GA preallocation disabled
 GA check disabled

 Variable memory set to 752.0 MW


 Geometry recognized as XYZ

 SETTING BASIS          =    CC-PVTZ


 Recomputing integrals since basis changed


 Using spherical harmonics

 Library entry N      S cc-pVTZ              selected for orbital group  1
 Library entry N      P cc-pVTZ              selected for orbital group  1
 Library entry N      D cc-pVTZ              selected for orbital group  1
 Library entry N      F cc-pVTZ              selected for orbital group  1
 Library entry H      S cc-pVTZ              selected for orbital group  2
 Library entry H      P cc-pVTZ              selected for orbital group  2
 Library entry H      D cc-pVTZ              selected for orbital group  2


 PROGRAM * SEWARD (Integral evaluation for generally contracted gaussian basis sets)     Author: Roland Lindh, 1990

 Geometry written to block  1 of record 700


 Point group  Cs  



 ATOMIC COORDINATES

 NR  ATOM    CHARGE       X              Y              Z

   1  N       7.00    0.000459203    0.800384051    0.000000000
   2  H       1.00   -1.518563127   -0.399319917    0.000000000
   3  H       1.00    1.518103923   -0.401062245    0.000000000

 Bond lengths in Bohr (Angstrom)

 1-2  1.935644196  1-3  1.935644259
     ( 1.024298797)     ( 1.024298830)

 Bond angles

  2-1-3  103.33181774

 NUCLEAR CHARGE:                    9
 NUMBER OF PRIMITIVE AOS:          81
 NUMBER OF SYMMETRY AOS:           74
 NUMBER OF CONTRACTIONS:           58   (   40A'  +   18A"  )
 NUMBER OF INNER CORE ORBITALS:     0   (    0A'  +    0A"  )
 NUMBER OF OUTER CORE ORBITALS:     1   (    1A'  +    0A"  )
 NUMBER OF VALENCE ORBITALS:        6   (    5A'  +    1A"  )


 NUCLEAR REPULSION ENERGY    7.56204245

 Eigenvalues of metric

         1 0.244E-02 0.412E-02 0.561E-02 0.902E-02 0.125E-01 0.380E-01 0.435E-01 0.594E-01
         2 0.362E-01 0.108E+00 0.108E+00 0.259E+00 0.331E+00 0.440E+00 0.486E+00 0.487E+00


 Contracted 2-electron integrals neglected if value below      1.0D-11
 AO integral compression algorithm  1   Integral accuracy      1.0D-11

     4.719 MB (compressed) written to integral file ( 59.5%)


 NUMBER OF SORTED TWO-ELECTRON INTEGRALS:     771976.     BUFFER LENGTH:  32768
 NUMBER OF SEGMENTS:   1  SEGMENT LENGTH:     771976      RECORD LENGTH: 524288

 Memory used in sort:       1.33 MW

 SORT1 READ      946216. AND WROTE      721387. INTEGRALS IN      3 RECORDS. CPU TIME:     0.01 SEC, REAL TIME:     0.02 SEC
 SORT2 READ      721387. AND WROTE      771976. INTEGRALS IN     18 RECORDS. CPU TIME:     0.04 SEC, REAL TIME:     0.04 SEC

 FILE SIZES:   FILE 1:    34.8 MBYTE,  FILE 4:    12.6 MBYTE,   TOTAL:     47.4 MBYTE

 OPERATOR DM      FOR CENTER  0  COORDINATES:    0.000000    0.000000    0.000000


 **********************************************************************************************************************************
 DATASETS  * FILE   NREC   LENGTH (MB)   RECORD NAMES
              1      19       32.09       500      610      700      900      950      970     1000      129      960     1100   
                                          VAR    BASINP    GEOM    SYMINP    ZMAT    AOBASIS   BASIS     P2S    ABASIS      S 
                                         1400     1410     1200     1210     1080     1600     1650     1300     1700   
                                           T        V       H0       H01     AOSYM     SMH    MOLCAS    ERIS     OPER   

 PROGRAMS   *        TOTAL       INT
 CPU TIMES  *         0.50      0.37
 REAL TIME  *         1.39 SEC
 DISK USED  *        45.51 MB
 **********************************************************************************************************************************


 Program * Restricted Hartree-Fock

 Orbital guess generated from atomic densities. Full valence occupancy:    6   1

 Initial alpha occupancy:   4   1
 Initial beta  occupancy:   4   0

 NELEC=    9   SYM=2   MS2= 1   THRE=1.0D-08   THRD=3.2D-06   THRG=3.2D-06  HFMA2=F  DIIS_START=2   DIIS_MAX=10   DIIS_INCORE=F

 Level shifts:    0.00 (CLOSED)    0.00 (OPEN)    0.30 (GAP_MIN)

 ITER           ETOT              DE          GRAD        DDIFF     DIIS  NEXP   TIME(IT)  TIME(TOT)  DIAG
   1      -55.56885164     -55.56885164     0.00D+00     0.13D+00     0     0       0.01      0.02    start
   2      -55.58045260      -0.01160096     0.79D-02     0.11D-01     1     0       0.00      0.02    diag2
   3      -55.58101838      -0.00056578     0.15D-02     0.16D-02     2     0       0.01      0.03    diag2
   4      -55.58111487      -0.00009649     0.53D-03     0.85D-03     3     0       0.01      0.04    diag2
   5      -55.58112696      -0.00001209     0.16D-03     0.25D-03     4     0       0.01      0.05    diag2
   6      -55.58112851      -0.00000155     0.54D-04     0.12D-03     5     0       0.00      0.05    diag2
   7      -55.58112855      -0.00000004     0.79D-05     0.21D-04     6     0       0.01      0.06    diag2
   8      -55.58112855      -0.00000000     0.13D-05     0.28D-05     7     0       0.01      0.07    fixocc
   9      -55.58112855      -0.00000000     0.18D-06     0.31D-06     0     0       0.01      0.08    diag

 Final alpha occupancy:   4   1
 Final beta  occupancy:   4   0

 !RHF STATE 1.2 Energy                -55.581128550981
  RHF One-electron energy             -90.209096406047
  RHF Two-electron energy              27.065925403151
  RHF Kinetic energy                   55.534297113038
  RHF Nuclear energy                    7.562042451914
  RHF Virial quotient                  -1.000843288569

 !RHF STATE 1.2 Dipole moment          -0.00043424    -0.75683679     0.00000000
 Dipole moment /Debye                  -0.00110372    -1.92368725     0.00000000

 Orbital energies:

           1.1          2.1          3.1          4.1          5.1          6.1
    -15.575185    -1.099069    -0.631252    -0.482609     0.138080     0.207358

           1.2          2.2          3.2
     -0.501016     0.607249     0.813668


 HOMO      4.1    -0.482609 =     -13.1325eV
 LUMO      5.1     0.138080 =       3.7573eV
 LUMO-HOMO         0.620689 =      16.8898eV

 Orbitals saved in record  2100.2


 **********************************************************************************************************************************
 DATASETS  * FILE   NREC   LENGTH (MB)   RECORD NAMES
              1      19       32.09       500      610      700      900      950      970     1000      129      960     1100   
                                          VAR    BASINP    GEOM    SYMINP    ZMAT    AOBASIS   BASIS     P2S    ABASIS      S 
                                         1400     1410     1200     1210     1080     1600     1650     1300     1700   
                                           T        V       H0       H01     AOSYM     SMH    MOLCAS    ERIS     OPER   

              2       4        0.44       700     1000      520     2100   
                                         GEOM     BASIS   MCVARS     RHF  

 PROGRAMS   *        TOTAL   RHF-SCF       INT
 CPU TIMES  *         0.58      0.08      0.37
 REAL TIME  *         1.49 SEC
 DISK USED  *        45.51 MB
 **********************************************************************************************************************************

 PROGRAM * MULTI (Direct Multiconfiguration SCF)       Authors: P.J. Knowles, H.-J. Werner (1984)
                                                                D.A. Kreplin, P.J. Knowles, H.-J. Werner (2019)


 Number of closed-shell orbitals:   1 (    1    0)
 Number of active  orbitals:        6 (    5    1)
 Number of external orbitals:      51 (   34   17)

 State symmetry 1

 Number of active electrons:   7    Spin symmetry=Doublet   Space symmetry=2
 Number of states:             1
 Number of CSFs:              95   (150 determinants, 300 intermediate states)

 Molecular orbitals read from record     2100.2  Type=RHF/CANONICAL  

 Wavefunction dump at record             2140.2

 Convergence thresholds  0.10E-04 (gradient)  0.10E-05 (energy)
 
 Number of orbital rotations:  226  ( 5 closed/active, 34 closed/virtual, 0 active/active, 187 active/virtual )
 Total number of variables:    376
 
 Second-order MCSCF: L-BFGS accelerated
 
 ITER  MIC  NCI  NEG     ENERGY(VAR)    ENERGY(PROJ) ENERGY CHANGE       GRAD(0)  GRAD(ORB)   GRAD(CI)      STEP      TIME
   1   18   17    0    -55.58487584     -55.63003487   -0.04515903    0.01298723 0.00048403 0.00000000  0.12E+01      0.40
   2    9    8    0    -55.62918928     -55.62989579   -0.00070651    0.02458490 0.00002793 0.00000000  0.12E+00      0.56
   3   13   12    0    -55.62989676     -55.62989677   -0.00000001    0.00007518 0.00000000 0.00000000  0.49E-03      0.79

 CONVERGENCE REACHED!  Final gradient:    0.00000000 ( 0.42E-08)
                       Final energy:    -55.62989677
 
 First order charge density matrix for state 1.2 saved on record 2140.2 (density set 1)
 
 Results for state 1.2
 =====================
 !MCSCF STATE 1.2 Energy                       -55.629896772169
 Nuclear energy                                  7.56204245
 Kinetic energy                                 55.66598068
 One electron energy                           -90.19739077
 Two electron energy                            27.00545155
 Virial ratio                                    1.99935178
 
 !MCSCF STATE 1.2 Dipole moment                 -0.00040747    -0.71018552     0.00000000
 Dipole moment /Debye                           -0.00103569    -1.80511155     0.00000000
 
 No non-zero expectation values
 
 
 Natural orbital dump at molpro section 2140.2 (Orbital set 2)


 **********************************************************************************************************************************
 DATASETS  * FILE   NREC   LENGTH (MB)   RECORD NAMES
              1      20       32.71       500      610      700      900      950      970     1000      129      960     1100   
                                          VAR    BASINP    GEOM    SYMINP    ZMAT    AOBASIS   BASIS     P2S    ABASIS      S 
                                         1400     1410     1200     1210     1080     1600     1650     1300     1700     1380   
                                           T        V       H0       H01     AOSYM     SMH    MOLCAS    ERIS     OPER     JKOP   

              2       5        0.61       700     1000      520     2100     2140   
                                         GEOM     BASIS   MCVARS     RHF     MCSCF   

 PROGRAMS   *        TOTAL    CASSCF   RHF-SCF       INT
 CPU TIMES  *         1.39      0.81      0.08      0.37
 REAL TIME  *         2.33 SEC
 DISK USED  *        45.51 MB
 **********************************************************************************************************************************


 PROGRAM * CI (Multireference internally contracted CI)     Authors: H.-J. Werner, P.J. Knowles, 1987


 Convergence thresholds:  THRVAR = 1.00D-08  THRDEN = 1.00D-06

 Number of optimized states: 1  Roots:    1
 Number of reference states: 1  Roots:    1

 Reference symmetry:                   2   Doublet 
 Number of electrons:                  9
 Maximum number of shells:             4
 Maximum number of spin couplings:    14

 Reference space:       45 conf       95 CSFs
 N elec internal:      126 conf      210 CSFs
 N-1 el internal:      141 conf      364 CSFs
 N-2 el internal:       96 conf      414 CSFs

 Number of electrons in valence space:                      7
 Maximum number of open shell orbitals in reference space:  5
 Maximum number of open shell orbitals in internal spaces:  7


 Number of core orbitals:           1 (   1   0 )
 Number of active  orbitals:        6 (   5   1 )
 Number of external orbitals:      51 (  34  17 )

 Molecular orbitals read from record     2140.2  Type=MCSCF/NATURAL (state 1.2)

 Valence orbitals related to previous ones by unitary transformation. Operators transformed.


 Number of p-space configurations:   1

 Reference wavefunction optimized for reference space (refopt=1)

 State     Reference Energy 
     1       -55.62989677

 Number of blocks in overlap matrix:     4   Smallest eigenvalue:  0.14D-02
 Number of N-2 electron functions:      35
 Number of N-1 electron functions:     364

 Number of internal configurations:                   95
 Number of singly external configurations:          9146
 Number of doubly external configurations:         23970
 Total number of contracted configurations:        33211
 Total number of uncontracted configurations:     281938

 Diagonal Coupling coefficients finished.               Storage:  195156 words, CPU-Time:      0.00 seconds.
 Energy denominators for pairs finished in 1 passes.    Storage:  204487 words, CPU-time:      0.00 seconds.

  ITER. STATE  ROOT     SQ.NORM     CORR.ENERGY   TOTAL ENERGY   ENERGY CHANGE       DEN1      VAR(S)    VAR(P)      TIME
    1     1     1     1.00000000     0.00000000   -55.62989677     0.00000000    -0.15465932  0.24D-01  0.19D-01     0.03
    2     1     1     1.04051740    -0.15070330   -55.78060007    -0.15070330    -0.00545286  0.93D-03  0.68D-03     0.10
    3     1     1     1.04269379    -0.15623571   -55.78613249    -0.00553242    -0.00032567  0.53D-04  0.40D-04     0.18
    4     1     1     1.04404668    -0.15660505   -55.78650182    -0.00036934    -0.00002472  0.55D-05  0.26D-05     0.26
    5     1     1     1.04426038    -0.15663182   -55.78652860    -0.00002677    -0.00000199  0.48D-06  0.19D-06     0.34
    6     1     1     1.04427230    -0.15663408   -55.78653085    -0.00000226    -0.00000018  0.45D-07  0.18D-07     0.42
    7     1     1     1.04427094    -0.15663430   -55.78653107    -0.00000022    -0.00000002  0.65D-08  0.18D-08     0.50


 =====================================
 Analysis of CPU times by interactions
 =====================================

       I      S      P

 I   0.0%
 S   2.0%   8.0%
 P   4.0%  18.0%  32.0%

 Initialization:   4.0%
 Other:           32.0%

 Total CPU:        0.5 seconds
 =====================================



 Reference coefficients greater than 0.0500000
 =============================================
 22200/           0.9679723
 2/\/\/          -0.0780036
 22020/          -0.0662331
 20202/          -0.0621012


 RESULTS FOR STATE 1.2
 =====================

 Coefficient of reference function:   C(0) = 0.97834979 (fixed)   0.97857339 (relaxed)

 Energy contributions of configuration classes

 CLASS          SQ.NORM        ECORR1        ECORR2
 +++++++++++++++++++++++++++++++++++++++++++++++++++
 Internals    0.00045716   -0.00000000   -0.00006854
 Singles      0.02160448   -0.05968369   -0.06036975
 Pairs        0.02268670   -0.09695060   -0.09619600
 Total        1.04474834   -0.15663430   -0.15663430
 +++++++++++++++++++++++++++++++++++++++++++++++++++


 Reference energy                     -55.62989677
 Nuclear energy                         7.56204245
 Kinetic energy                        55.80307713
 One electron energy                  -90.08809998
 Two electron energy                   26.73952646
 Virial quotient                       -0.99970349
 Correlation energy                    -0.15663430
 !MRCI STATE 1.2 Energy               -55.786531070962

 Properties without orbital relaxation:

 !MRCI STATE 1.2 Dipole moment         -0.00041016    -0.71486617     0.00000000
 Dipole moment /Debye                  -0.00104252    -1.81700856     0.00000000

 Cluster corrected energies           -55.79354020 (Davidson, fixed reference)
 Cluster corrected energies           -55.79346542 (Davidson, relaxed reference)

 Cluster corrected energies           -55.79127240 (Pople, fixed reference)
 Cluster corrected energies           -55.79122111 (Pople, relaxed reference)



 **********************************************************************************************************************************
 DATASETS  * FILE   NREC   LENGTH (MB)   RECORD NAMES
              1      20       32.71       500      610      700      900      950      970     1000      129      960     1100   
                                          VAR    BASINP    GEOM    SYMINP    ZMAT    AOBASIS   BASIS     P2S    ABASIS      S 
                                         1400     1410     1200     1210     1080     1600     1650     1300     1700     1380   
                                           T        V       H0       H01     AOSYM     SMH    MOLCAS    ERIS     OPER     JKOP   

              2       5        0.61       700     1000      520     2100     2140   
                                         GEOM     BASIS   MCVARS     RHF     MCSCF   

 PROGRAMS   *        TOTAL      MRCI    CASSCF   RHF-SCF       INT
 CPU TIMES  *         1.93      0.53      0.81      0.08      0.37
 REAL TIME  *         2.90 SEC
 DISK USED  *        45.51 MB
 **********************************************************************************************************************************

 MRCI/cc-pVTZ energy=    -55.786531070962

            MRCI          CASSCF         RHF-SCF
    -55.78653107    -55.62989677    -55.58112855
 **********************************************************************************************************************************
 Molpro calculation terminated
