
                                 *****************
                                 * O   R   C   A *
                                 *****************

                                            #,                                       
                                            ###                                      
                                            ####                                     
                                            #####                                    
                                            ######                                   
                                           ########,                                 
                                     ,,################,,,,,                         
                               ,,#################################,,                 
                          ,,##########################################,,             
                       ,#########################################, ''#####,          
                    ,#############################################,,   '####,        
                  ,##################################################,,,,####,       
                ,###########''''           ''''###############################       
              ,#####''   ,,,,##########,,,,          '''####'''          '####       
            ,##' ,,,,###########################,,,                        '##       
           ' ,,###''''                  '''############,,,                           
         ,,##''                                '''############,,,,        ,,,,,,###''
      ,#''                                            '''#######################'''  
     '                                                          ''''####''''         
             ,#######,   #######,   ,#######,      ##                                
            ,#'     '#,  ##    ##  ,#'     '#,    #''#        ,####,    ,#,          
            ##       ##  ##   ,#'  ##            #'  '#       #'       ,# #          
            ##       ##  #######   ##           ,######,      #####,      #          
            '#,     ,#'  ##    ##  '#,     ,#' ,#      #,     #,   #      #          
             '#######'   ##     ##  '#######'  #'      '#     '####' #    #          



                #########################################################
                #                        -***-                          #
                #          Department of theory and spectroscopy        #
                #                                                       #
                #                      Frank Neese                      #
                #                                                       #
                #     Directorship, Architecture, Infrastructure        #
                #                    SHARK, DRIVERS                     #
                #        Core code/Algorithms in most modules           #
                #                                                       #
                #        Max Planck Institute fuer Kohlenforschung      #
                #                Kaiser Wilhelm Platz 1                 #
                #                 D-45470 Muelheim/Ruhr                 #
                #                      Germany                          #
                #                                                       #
                #                  All rights reserved                  #
                #                        -***-                          #
                #########################################################


                         Program Version 6.1.0-f.0  -   RELEASE   -


 With contributions from (in alphabetic order):
[Max-Planck-Institut fuer Kohlenforschung]                               
  Daniel Aravena         : Magnetic Suceptibility                        
  Michael Atanasov       : Ab Initio Ligand Field Theory (pilot matlab implementation)
  Alexander A. Auer      : GIAO ZORA, VPT2 properties, NMR spectrum      
  Ute Becker             : All parallelization in ORCA, NUMFREQ, NUMCALC 
  Giovanni Bistoni       : ED, misc. LED, open-shell LED, HFLD           
  Dmytro Bykov           : pre 5.0 version of the SCF Hessian            
  Marcos Casanova-Páez   : Triplet and SCS-CIS(D). UHF-(DLPNO)-IP/EA/STEOM-CCSD. UHF-CVS-IP/STEOM-CCSD   
  Vijay G. Chilkuri      : MRCI spin determinant printing, contributions to CSF-ICE 
  Pauline Colinet        : FMM embedding                                 
  Dipayan Datta          : RHF DLPNO-CCSD density                        
  Achintya Kumar Dutta   : EOM-CC, STEOM-CC                              
  Nicolas Foglia         : Exact transition moments, OPA infrastructure, MCD improvements    
  Dmitry Ganyushin       : Spin-Orbit,Spin-Spin,Magnetic field MRCI      
  Miquel Garcia-Rates    : C-PCM and meta-GGA Hessian, CCSD/C-PCM, Gaussian charge scheme 
  Tiago L. C. Gouveia    : GS-ROHF, GS-ROCIS                             
  Yang Guo               : DLPNO-NEVPT2, F12-NEVPT2, CIM, IAO-localization        
  Andreas Hansen         : Spin unrestricted coupled pair/coupled cluster methods 
  Ingolf Harden          : AUTO-CI MPn and infrastructure                
  Benjamin Helmich-Paris : MC-RPA, TRAH-(SCF,CASSCF), AVAS, COSX integrals, SCF dyn. polar., MC-PDFT, srDFT 
  Lee Huntington         : MR-EOM, pCC                                   
  Robert Izsak           : Overlap fitted RIJCOSX, COSX-SCS-MP3, EOM     
  Riya Kayal             : Wick's Theorem for AUTO-CI, AUTO-CI UHF-CCSDT 
  Emily Kempfer          : AUTO-CI RHF CISDT and CCSDT, approximate NEVPT4
  Christian Kollmar      : KDIIS, OOCD, Brueckner-CCSD(T), CCSD density, CASPT2, CASPT2-K, improved NEVPT2 
  Axel Koslowski         : Symmetry handling                             
  Simone Kossmann        : meta-GGA functionals, TD-DFT gradient, OOMP2, (MP2 Hessian; deprecated post 5.0) 
  Lucas Lang             : DCDCAS, Hyperfine gauge corrections, ICE-SOC+SSC
  Marvin Lechner         : AUTO-CI (C++ implementation), FIC-MRCC        
  Spencer Leger          : CASSCF response                               
  Dagmar Lenk            : GEPOL surface, SMD, ORCA-2-JSON               
  Dimitrios Liakos       : Extrapolation schemes; Compound Job, Property file
  Dimitrios Manganas     : Further ROCIS development; embedding schemes. LFT, Crystal Embedding 
  Dimitrios Pantazis     : SARC Basis sets                               
  Anastasios Papadopoulos: AUTO-CI, single reference methods and gradients 
  Taras Petrenko         : pre 6.0 DFT Hessian and TD-DFT gradient,  ECA, NRVS 
  Petra Pikulova         : Analytic Raman intensities                    
  Peter Pinski           : DLPNO-MP2, DLPNO-MP2 Gradient                 
  Shashank Vittal Rao    : ES-AILFT, MagRelax                            
  Christoph Reimann      : Effective Core Potentials                     
  Marius Retegan         : Local ZFS, SOC                                
  Christoph Riplinger    : Optimizer, TS searches, QM/MM, DLPNO-CCSD(T), (RO)-DLPNO pert. Triples 
  Michael Roemelt        : Original ROCIS implementation, recursive CI coupling coefficients
  Masaaki Saitow         : Open-shell DLPNO-CCSD energy and density      
  Barbara Sandhoefer     : DKH picture change effects                    
  Yorick L. A. Schmerwitz: GMF and freeze-and-release deltaSCF, NEB S-IDPP initial path                    
  Kantharuban Sivalingam : CASSCF convergence/infrastructure, NEVPT2, NEVPT3, NEVPT4(SD), FIC-MRCI and CEPA variants
  Bernardo de Souza      : ESD, SOC TD-DFT                               
  Georgi L. Stoychev     : AutoAux, RI-MP2 NMR, DLPNO-MP2 response, X2C  
  Van Anh Tran           : RI-MP2 g-tensors                              
  Willem Van den Heuvel  : Paramagnetic NMR                              
  Zikuan Wang            : NOTCH, Electric field optimization            
  Frank Wennmohs         : Technical directorship and infrastructure     
  Hang Xu                : AUTO-CI-Response properties                   
                                                                         
[FACCTs GmbH]                                                            
  Markus Bursch, Nicolas Foglia, Miquel Garcia-Rates, Ingolf Harden, Hagen Neugebauer, Anastasios Papadopoulos, 
  Christoph Riplinger, Bernardo de Souza, Georgi L. Stoychev                                                    
                                                                 
  APM, various basis sets, CI-OPT, improved COSX, DLPNO-Multilevel,           
  DOCKER, DRACO, updates on ESD, Fragmentator, GOAT, IRC, LR-CPCM, L-BFGS, MBIS, meta-GGA TD-DFT gradient, ML-optimized integration grids, 
  MM, NACMEs, nearIR, NEB, NEB-TS, NL-DFT gradient (VV10), 2- and 3-layer-ONIOM, interface openCOSMO-RS, QMMM,   
  Crystal-QMMM, RESP, rigid body optimization, SF, symmetry and pop. for TD-DFT, various functionals, SOLVATOR                                   
                                                                         
[Other institutions]                                                     
  V. Asgeirsson          : NEB                                           
  Christoph Bannwarth    : sTDA-DFT, sTD-DFT, PBEh-3c, B97-3c, D3        
  Giovanni Bistoni       : ETS/NOCV, ADLD/ADEX, COVALED                  
  Martin Brehm           : Molecular dynamics                            
  Ronald Cardenas        : ETS/NOCV                                      
  Martina Colucci        : COVALED                                       
  Sebastian Ehlert       : rSCAN, r2SCAN, r2SCAN-3c, D4, dhf basis sets  
  Marvin Friede          : D4 for Fr, Ra, Ac-Lr                          
  Lars Goerigk           : TD-DFT with DH, B97 family of functionals     
  Stefan Grimme          : VdW corrections, initial TS optimization, DFT functionals, gCP, sTDA/sTD-DF 
  Waldemar Hujo          : DFT-NL                                        
  H. Jonsson             : NEB                                           
  Holger Kruse           : gCP                                           
  Marcel Mueller         : wB97X-3c, vDZP basis set                      
  Hagen Neugebauer       : wr2SCAN, Native XTB                           
  Gianluca Regni         : ADLD/ADEX                                     
  Tobias Risthaus        : pre 6.0 range-separated hybrid DFT and stability analysis
  Lukas Wittmann         : regularized MP2, r2SCAN double-hybrids, wr2SCAN        
                                                                         
We gratefully acknowledge several colleagues who have allowed us to      
interface, adapt or use parts of their codes:                            
  Ed Valeev, F. Pavosevic, A. Kumar             : LibInt (2-el integral package), F12 methods 
  Garnet Chan, S. Sharma, J. Yang, R. Olivares  : DMRG                   
  Ulf Ekstrom                                   : XCFun DFT Library      
  Mihaly Kallay                                 : mrcc  (arbitrary order and MRCC methods)
  Frank Weinhold                                : gennbo (NPA and NBO analysis)           
  Simon Mueller                                 : openCOSMO-RS                            
  Christopher J. Cramer and Donald G. Truhlar   : smd solvation model                     
  S Lehtola, MJT Oliveira, MAL Marques          : LibXC Library                           
  Liviu Ungur et al                             : ANISO software                          


 Your calculation uses the libint2 library for the computation of 2-el integrals
 For citations please refer to: http://libint.valeyev.net

 Your ORCA version has been built with support for libXC version: 7.0.0
 For citations please refer to: https://libxc.gitlab.io

 This ORCA versions uses:
   CBLAS   interface :  Fast vector & matrix operations
   LAPACKE interface :  Fast linear algebra routines
   SCALAPACK package :  Parallel linear algebra routines
   Shared memory     :  Shared parallel matrices
   BLAS/LAPACK       :  OpenBLAS 0.3.29  USE64BITINT DYNAMIC_ARCH NO_AFFINITY Zen SINGLE_THREADED
        Core in use  :  Zen
   Copyright (c) 2011-2014, The OpenBLAS Project


  ***********************************
  * Starting time: Mon Oct 13 16:34:34 2025
  * Host name:     mc046.hpc.nesi.org.nz
  * Process ID:    2846181
  * Working dir.:  /nesi/nobackup/nesi99999/geoffreyweal/ORCA_tutorial/Step4A_IRC
  ***********************************

NOTE: MaxCore=2000 MB was set to SCF,MP2,MDCI,CIPSI,MRCI,RASCI and CIS
      => If you want to overwrite this, your respective input block should be placed after the MaxCore statement


***************************************
The coordinates will be read from file: TS.xyz
***************************************


Your calculation utilizes the atom-pairwise dispersion correction
with the Becke-Johnson damping scheme (D3BJ)


Warning: RI is on but no J-basis has been assigned. Assigning Def2/J (nothing to worry about!)
================================================================================

----- Orbital basis set information -----
Your calculation utilizes the basis: def2-TZVP
   F. Weigend and R. Ahlrichs, Phys. Chem. Chem. Phys. 7, 3297 (2005).

----- AuxJ basis set information -----
Your calculation utilizes the auxiliary basis: def2/J
   H-Rn: F. Weigend, Phys. Chem. Chem. Phys. 8, 1057 (2006).
   Fr-Lr: K. Eichkorn, F. Weigend, O. Treutler, R. Ahlrichs; Theor. Chem. Acc. 97, 119 (1997).

================================================================================
                                        WARNINGS
                       Please study these warnings very carefully!
================================================================================

WARNING: SinglePoint found together with IRC
         Switching on EnGrad - energy plus gradient calculation

================================================================================
                                       INPUT FILE
================================================================================
NAME = orca.inp
|  1> !B3LYP DEF2-TZVP D3BJ
|  2> !IRC TightSCF defgrid2
|  3> %SCF
|  4>     MaxIter 2000       # Here setting MaxIter to a very high number. Intended for systems that require sometimes 1000 iterations before converging (very rare).
|  5>     DIISMaxEq 5        # Default value is 5. A value of 15-40 necessary for difficult systems.
|  6>     directresetfreq 15 # Default value is 15. A value of 1 (very expensive) is sometimes required. A value between 1 and 15 may be more cost-effective.
|  7> END
|  8> %CPCM EPSILON 6.02 REFRAC 1.3723 END
|  9> %PAL NPROCS 32 END
| 10> %maxcore 2000
| 11> %IRC
| 12>     MaxIter 2000
| 13>     InitHess calc_numfreq
| 14>     Direction both
| 15>     TolMAXG 2.e-3  # Max gradient (a.u.). Currently set to values equivalent to LooseOpt.
| 16>     TolRMSG 5.e-4  # RMS gradient (a.u.). Currently set to values equivalent to LooseOpt.
| 17>     PrintLevel 1
| 18> END
| 19> * xyzfile 1 1 TS.xyz
| 20> 
| 21>                          ****END OF INPUT****
================================================================================

                     *******************************
                     * Energy+Gradient Calculation *
                     *******************************

---------------------------------
CARTESIAN COORDINATES (ANGSTROEM)
---------------------------------
  C     -2.975533    1.866067    1.650650
  C     -1.837443    2.623551    1.409334
  C     -0.626591    2.286595    2.017996
  C     -0.565294    1.172912    2.859563
  C     -1.704082    0.417451    3.097847
  C     -2.911387    0.762491    2.495313
  H     -3.911769    2.138247    1.181182
  H     -3.797707    0.170178    2.682023
  H     -1.885371    3.482825    0.751750
  H      0.370624    0.876890    3.318216
  H     -1.649533   -0.444638    3.749629
  C      0.547075    3.143498    1.762395
  N      1.497422    3.322721    2.790383
  H      1.344910    2.818679    3.652646
  H      1.837973    4.264850    2.923413
  H      0.339166    4.049128    1.210324
  H      1.056471    2.388478    0.231600
  Cu     2.293528    2.294536    1.128775

----------------------------
CARTESIAN COORDINATES (A.U.)
----------------------------
  NO LB      ZA    FRAG     MASS         X           Y           Z
   0 C     6.0000    0    12.011   -5.622942    3.526355    3.119276
   1 C     6.0000    0    12.011   -3.472265    4.957792    2.663256
   2 C     6.0000    0    12.011   -1.184085    4.321038    3.813459
   3 C     6.0000    0    12.011   -1.068250    2.216482    5.403791
   4 C     6.0000    0    12.011   -3.220249    0.788869    5.854083
   5 C     6.0000    0    12.011   -5.501724    1.440899    4.715459
   6 H     1.0000    0     1.008   -7.392172    4.040701    2.232111
   7 H     1.0000    0     1.008   -7.176626    0.321591    5.068289
   8 H     1.0000    0     1.008   -3.562834    6.581586    1.420601
   9 H     1.0000    0     1.008    0.700377    1.657082    6.270520
  10 H     1.0000    0     1.008   -3.117166   -0.840245    7.085773
  11 C     6.0000    0    12.011    1.033822    5.940350    3.330444
  12 N     7.0000    0    14.007    2.829718    6.279033    5.273060
  13 H     1.0000    0     1.008    2.541512    5.326531    6.902501
  14 H     1.0000    0     1.008    3.473266    8.059399    5.524449
  15 H     1.0000    0     1.008    0.640931    7.651744    2.287181
  16 H     1.0000    0     1.008    1.996441    4.513570    0.437661
  17 Cu   29.0000    0    63.550    4.334140    4.336045    2.133076

--------------------------------
INTERNAL COORDINATES (ANGSTROEM)
--------------------------------
 C      0   0   0     0.000000000000     0.00000000     0.00000000
 C      1   0   0     1.388258651846     0.00000000     0.00000000
 C      2   1   0     1.396485737280   120.22545270     0.00000000
 C      3   2   1     1.397241120571   119.52979478     0.71850609
 C      4   3   2     1.387205474263   120.10043711   359.33144734
 C      1   2   3     1.391205129633   120.03739586   359.64108282
 H      1   2   3     1.082136596044   119.77635136   179.52777254
 H      6   1   2     1.082246375248   120.07480221   180.14409172
 H      2   1   3     1.083082343230   120.14209943   180.33581581
 H      4   3   2     1.083481867625   120.70560927   178.16660258
 H      5   4   3     1.082124756794   119.73150369   179.92037851
 C      3   2   1     1.475501925569   118.29862198   181.73338757
 N     12   3   2     1.411396711674   118.89268923   146.33267141
 H     13  12   3     1.010354177753   117.16813502     2.39277361
 H     13  12   3     1.010583802251   116.17809101   223.12130483
 H     12   3   2     1.080821345522   114.96669669     7.32418397
 H     12   3   2     1.781255663893    97.48020546   275.65654750
 Cu    17  12   3     1.531031760287    75.72808145   235.97641378

---------------------------
INTERNAL COORDINATES (A.U.)
---------------------------
 C      0   0   0     0.000000000000     0.00000000     0.00000000
 C      1   0   0     2.623428655036     0.00000000     0.00000000
 C      2   1   0     2.638975593385   120.22545270     0.00000000
 C      3   2   1     2.640403060932   119.52979478     0.71850609
 C      4   3   2     2.621438437834   120.10043711   359.33144734
 C      1   2   3     2.628996691113   120.03739586   359.64108282
 H      1   2   3     2.044941806017   119.77635136   179.52777254
 H      6   1   2     2.045149258648   120.07480221   180.14409172
 H      2   1   3     2.046729009191   120.14209943   180.33581581
 H      4   3   2     2.047484000881   120.70560927   178.16660258
 H      5   4   3     2.044919433078   119.73150369   179.92037851
 C      3   2   1     2.788294549399   118.29862198   181.73338757
 N     12   3   2     2.667153251382   118.89268923   146.33267141
 H     13  12   3     1.909292694217   117.16813502     2.39277361
 H     13  12   3     1.909726621631   116.17809101   223.12130483
 H     12   3   2     2.042456342733   114.96669669     7.32418397
 H     12   3   2     3.366085379254    97.48020546   275.65654750
 Cu    17  12   3     2.893230729279    75.72808145   235.97641378

---------------------
BASIS SET INFORMATION
---------------------
There are 4 groups of distinct atoms

 Group   1 Type C   : 11s6p2d1f contracted to 5s3p2d1f pattern {62111/411/11/1}
 Group   2 Type H   : 5s1p contracted to 3s1p pattern {311/1}
 Group   3 Type N   : 11s6p2d1f contracted to 5s3p2d1f pattern {62111/411/11/1}
 Group   4 Type Cu  : 17s11p7d1f contracted to 6s4p4d1f pattern {842111/6311/4111/1}

Atom   0C    basis set group =>   1
Atom   1C    basis set group =>   1
Atom   2C    basis set group =>   1
Atom   3C    basis set group =>   1
Atom   4C    basis set group =>   1
Atom   5C    basis set group =>   1
Atom   6H    basis set group =>   2
Atom   7H    basis set group =>   2
Atom   8H    basis set group =>   2
Atom   9H    basis set group =>   2
Atom  10H    basis set group =>   2
Atom  11C    basis set group =>   1
Atom  12N    basis set group =>   3
Atom  13H    basis set group =>   2
Atom  14H    basis set group =>   2
Atom  15H    basis set group =>   2
Atom  16H    basis set group =>   2
Atom  17Cu   basis set group =>   4
---------------------------------
AUXILIARY/J BASIS SET INFORMATION
---------------------------------
There are 4 groups of distinct atoms

 Group   1 Type C   : 12s5p4d2f1g contracted to 6s4p3d1f1g pattern {711111/2111/211/2/1}
 Group   2 Type H   : 5s2p1d contracted to 3s1p1d pattern {311/2/1}
 Group   3 Type N   : 12s5p4d2f1g contracted to 6s4p3d1f1g pattern {711111/2111/211/2/1}
 Group   4 Type Cu  : 19s5p5d3f3g contracted to 8s5p4d3f3g pattern {121111111/11111/2111/111/111}

Atom   0C    basis set group =>   1
Atom   1C    basis set group =>   1
Atom   2C    basis set group =>   1
Atom   3C    basis set group =>   1
Atom   4C    basis set group =>   1
Atom   5C    basis set group =>   1
Atom   6H    basis set group =>   2
Atom   7H    basis set group =>   2
Atom   8H    basis set group =>   2
Atom   9H    basis set group =>   2
Atom  10H    basis set group =>   2
Atom  11C    basis set group =>   1
Atom  12N    basis set group =>   3
Atom  13H    basis set group =>   2
Atom  14H    basis set group =>   2
Atom  15H    basis set group =>   2
Atom  16H    basis set group =>   2
Atom  17Cu   basis set group =>   4


           ************************************************************
           *        Program running with 32 parallel MPI-processes    *
           *              working on a common directory               *
           ************************************************************
------------------------------------------------------------------------------
                             ORCA STARTUP CALCULATIONS
                           -- RI-GTO INTEGRALS CHOSEN --
------------------------------------------------------------------------------
------------------------------------------------------------------------------
                   ___                                                        
                  /   \      - P O W E R E D   B Y -                         
                 /     \                                                     
                 |  |  |   _    _      __       _____    __    __             
                 |  |  |  | |  | |    /  \     |  _  \  |  |  /  |          
                  \  \/   | |  | |   /    \    | | | |  |  | /  /          
                 / \  \   | |__| |  /  /\  \   | |_| |  |  |/  /          
                |  |  |   |  __  | /  /__\  \  |    /   |      \           
                |  |  |   | |  | | |   __   |  |    \   |  |\   \          
                \     /   | |  | | |  |  |  |  | |\  \  |  | \   \       
                 \___/    |_|  |_| |__|  |__|  |_| \__\ |__|  \__/        
                                                                              
                      - O R C A' S   B I G   F R I E N D -                    
                                      &                                       
                       - I N T E G R A L  F E E D E R -                       
                                                                              
 v1 FN, 2020, v2 2021, v3 2022-2024                                           
------------------------------------------------------------------------------


----------------------
SHARK INTEGRAL PACKAGE
----------------------

Number of atoms                             ...     18
Number of basis functions                   ...    347
Number of shells                            ...    139
Maximum angular momentum                    ...      3
Integral batch strategy                     ... SHARK/LIBINT Hybrid
RI-J (if used) integral strategy            ... SPLIT-RIJ (Revised 2003 algorithm where possible)
Printlevel                                  ...      1
Contraction scheme used                     ... SEGMENTED contraction
Prescreening option                         ... SCHWARTZ
   Thresh                                   ... 2.500e-11
   Tcut                                     ... 2.500e-12
   Tpresel                                  ... 2.500e-12 
Coulomb Range Separation                    ... NOT USED
Exchange Range Separation                   ... NOT USED
Multipole approximations                    ... NOT USED
Finite Nucleus Model                        ... NOT USED
CABS basis                                  ... NOT available
Auxiliary Coulomb fitting basis             ... AVAILABLE
   # of basis functions in Aux-J            ...    582
   # of shells in Aux-J                     ...    188
   Maximum angular momentum in Aux-J        ...      4
Auxiliary J/K fitting basis                 ... NOT available
Auxiliary Correlation fitting basis         ... NOT available
Auxiliary 'external' fitting basis          ... NOT available

Checking pre-screening integrals            ... done (  0.0 sec) Dimension = 139
   => SHARK Basis and OBASIS are compatible. Storing Pre-screening
Shell pair information
Shell pair cut-off parameter TPreSel        ...   2.5e-12
Total number of shell pairs                 ...      9730
Shell pairs after pre-screening             ...      8627
Total number of primitive shell pairs       ...     31637
Primitive shell pairs kept                  ...     20225
          la=0 lb=0:   2310 shell pairs
          la=1 lb=0:   2401 shell pairs
          la=1 lb=1:    646 shell pairs
          la=2 lb=0:   1309 shell pairs
          la=2 lb=1:    687 shell pairs
          la=2 lb=2:    197 shell pairs
          la=3 lb=0:    571 shell pairs
          la=3 lb=1:    303 shell pairs
          la=3 lb=2:    163 shell pairs
          la=3 lb=3:     40 shell pairs

Checking whether 4 symmetric matrices of dimension 347 fit in memory
:Max Core in MB      =   2000.00
 MB in use           =     14.35
 MB left             =   1985.65
 MB needed           =      1.84
 Data fit in memory  = YES
Calculating RI/J V-Matrix + Cholesky decomp.... done (  0.3 sec)
Calculating Nuclear repulsion               ... done (  0.0 sec) ENN=    611.088717809921 Eh

Diagonalization of the overlap matrix:
Smallest eigenvalue                        ... 8.511e-06
Time for diagonalization                   ...    0.018 sec
Threshold for overlap eigenvalues          ... 1.000e-07
Number of eigenvalues below threshold      ... 0
Time for construction of square roots      ...    0.015 sec
Total time needed                          ...    0.037 sec

-------------------
DFT GRID GENERATION
-------------------

General Integration Accuracy     IntAcc      ... 4.388
Radial Grid Type                 RadialGrid  ... OptM3 with GC (2021)
Angular Grid (max. ang.)         AngularGrid ... 4 (Lebedev-302)
Angular grid pruning method      GridPruning ... 4 (adaptive)
Weight generation scheme         WeightScheme... mBecke (2022)
Basis function cutoff            BFCut       ... 1.0000e-11
Integration weight cutoff        WCut        ... 1.0000e-14
Partially contracted basis set               ... off
Rotationally invariant grid construction     ... off
Angular grids for H and He will be reduced by one unit
Core-polarized basis detected: some atoms will have their core
                               angular grid increased.

Total number of grid points                  ...    88061
Total number of batches                      ...     1384
Average number of points per batch           ...       63
Average number of grid points per atom       ...     4892

--------------------
COSX GRID GENERATION
--------------------

GRIDX 1
-------
General Integration Accuracy     IntAcc      ... 3.816
Radial Grid Type                 RadialGrid  ... OptM3 with GC (2021)
Angular Grid (max. ang.)         AngularGrid ... 1 (Lebedev-50)
Angular grid pruning method      GridPruning ... 4 (adaptive)
Weight generation scheme         WeightScheme... mBecke (2022)
Basis function cutoff            BFCut       ... 1.0000e-11
Integration weight cutoff        WCut        ... 1.0000e-14
Partially contracted basis set               ... on
Rotationally invariant grid construction     ... off
Angular grids for H and He will be reduced by one unit
Core-polarized basis detected: some atoms will have their core
                               angular grid increased.

Total number of grid points                  ...    15741
Total number of batches                      ...      132
Average number of points per batch           ...      119
Average number of grid points per atom       ...      874
UseSFitting                                  ... on

GRIDX 2
-------
General Integration Accuracy     IntAcc      ... 4.020
Radial Grid Type                 RadialGrid  ... OptM3 with GC (2021)
Angular Grid (max. ang.)         AngularGrid ... 2 (Lebedev-110)
Angular grid pruning method      GridPruning ... 4 (adaptive)
Weight generation scheme         WeightScheme... mBecke (2022)
Basis function cutoff            BFCut       ... 1.0000e-11
Integration weight cutoff        WCut        ... 1.0000e-14
Partially contracted basis set               ... on
Rotationally invariant grid construction     ... off
Angular grids for H and He will be reduced by one unit
Core-polarized basis detected: some atoms will have their core
                               angular grid increased.

Total number of grid points                  ...    27018
Total number of batches                      ...      219
Average number of points per batch           ...      123
Average number of grid points per atom       ...     1501
UseSFitting                                  ... on

GRIDX 3
-------
General Integration Accuracy     IntAcc      ... 4.338
Radial Grid Type                 RadialGrid  ... OptM3 with GC (2021)
Angular Grid (max. ang.)         AngularGrid ... 3 (Lebedev-194)
Angular grid pruning method      GridPruning ... 4 (adaptive)
Weight generation scheme         WeightScheme... mBecke (2022)
Basis function cutoff            BFCut       ... 1.0000e-11
Integration weight cutoff        WCut        ... 1.0000e-14
Partially contracted basis set               ... on
Rotationally invariant grid construction     ... off
Angular grids for H and He will be reduced by one unit
Core-polarized basis detected: some atoms will have their core
                               angular grid increased.

Total number of grid points                  ...    52227
Total number of batches                      ...      416
Average number of points per batch           ...      125
Average number of grid points per atom       ...     2902
UseSFitting                                  ... on
Grids setup in   1.5 sec
Initializing property integral containers    ... done (  0.0 sec)

SHARK setup successfully completed in   3.8 seconds

Maximum memory used throughout the entire STARTUP-calculation: 33.5 MB


           ************************************************************
           *        Program running with 32 parallel MPI-processes    *
           *              working on a common directory               *
           ************************************************************
-------------------------------------------------------------------------------
                                 ORCA GUESS
                   Start orbitals & Density for SCF / CASSCF
-------------------------------------------------------------------------------

------------
SCF SETTINGS
------------
Hamiltonian:
 Density Functional     Method          .... DFT(GTOs)
 Exchange Functional    Exchange        .... B88
   X-Alpha parameter    XAlpha          ....  0.666667
   Becke's b parameter  XBeta           ....  0.004200
 Correlation Functional Correlation     .... LYP
 LDA part of GGA corr.  LDAOpt          .... VWN-5
 Gradients option       PostSCFGGA      .... off
 Hybrid DFT is turned on
   Fraction HF Exchange ScalHFX         ....  0.200000
   Scaling of DF-GGA-X  ScalDFX         ....  0.720000
   Scaling of DF-GGA-C  ScalDFC         ....  0.810000
   Scaling of DF-LDA-C  ScalLDAC        ....  1.000000
   Perturbative correction              ....  0.000000
   NL short-range parameter             ....  4.800000
 RI-approximation to the Coulomb term is turned on
   Number of AuxJ basis functions       .... 582
   RIJ-COSX (HFX calculated with COS-X)).... on


General Settings:
 Integral files         IntName         .... orca
 Hartree-Fock type      HFTyp           .... RHF
 Total Charge           Charge          ....    1
 Multiplicity           Mult            ....    1
 Number of Electrons    NEL             ....   86
 Basis Dimension        Dim             ....  347
 Nuclear Repulsion      ENuc            ....    611.0887178099 Eh

Convergence Acceleration:
 AO-DIIS                CNVDIIS         .... on
   Start iteration      DIISMaxIt       ....    12
   Startup error        DIISStart       ....  0.200000
   # of expansion vecs  DIISMaxEq       ....     5
   Bias factor          DIISBfac        ....   1.050
   Max. coefficient     DIISMaxC        ....  10.000
 MO-DIIS                CNVKDIIS        .... off
 Trust-Rad. Augm. Hess. CNVTRAH         .... auto
   Auto Start mean grad. ratio tolernc. ....  1.125000
   Auto Start start iteration           ....    50
   Auto Start num. interpolation iter.  ....    10
   Max. Number of Micro iterations      ....    24
   Max. Number of Macro iterations      .... Maxiter - #DIIS iter
   Number of Davidson start vectors     ....     2
   Converg. threshold    (grad. norm)   ....   1.000e-05
   Grad. Scal. Fac. for Micro threshold ....   0.100
   Minimum threshold for Micro iter.    ....   1.000e-02
   NR start threshold (gradient norm)   ....   1.000e-04
   Initial trust radius                 ....   0.400
   Minimum AH scaling param. (alpha)    ....   1.000
   Maximum AH scaling param. (alpha)    .... 1000.000
   Quad. conv. algorithm                .... NR
   White noise on init. David. guess    .... on
   Maximum white noise                  ....   0.010
   Pseudo random numbers                .... off
   Inactive MOs                         .... canonical
   Orbital update algorithm             .... Taylor
   Preconditioner                       .... Diag
   Full preconditioner red. dimension   ....   250
 SOSCF                 CNVSOSCF           .... on
   Start iteration     SOSCFMaxIt         ....   150
   Startup grad/error  SOSCFStart         ....  0.003300
   Hessian update      SOSCFHessUp        .... L-BFGS
   Autom. constraints  SOSCFAutoConstrain .... off
 Level Shifting         CNVShift        .... on
   Level shift para.    LevelShift      ....    0.2500
   Turn off err/grad.   ShiftErr        ....    0.0010
 Zerner damping         CNVZerner       .... off
 Static damping         CNVDamp         .... on
   Fraction old density DampFac         ....    0.7000
   Max. Damping (<1)    DampMax         ....    0.9800
   Min. Damping (>=0)   DampMin         ....    0.0000
   Turn off err/grad.   DampErr         ....    0.1000

SCF Procedure:
 Maximum # iterations   MaxIter         ....  2000
 SCF integral mode      SCFMode         .... Direct
   Integral package                     .... SHARK and LIBINT hybrid scheme
 Reset frequency        DirectResetFreq ....    15
 Integral Threshold     Thresh          ....  2.500e-11 Eh
 Primitive CutOff       TCut            ....  2.500e-12 Eh

Convergence Tolerance:
 Convergence Check Mode ConvCheckMode   .... Total+1el-Energy
 Convergence forced     ConvForced      .... 0
 Energy Change          TolE            ....  1.000e-08 Eh
 1-El. energy change                    ....  1.000e-05 Eh
 Orbital Gradient       TolG            ....  1.000e-05
 Orbital Rotation angle TolX            ....  1.000e-05
 DIIS Error             TolErr          ....  5.000e-07

------------------------------
INITIAL GUESS: MODEL POTENTIAL
------------------------------
Loading Hartree-Fock densities                     ... done
Calculating cut-offs                               ... done
Initializing the effective Hamiltonian             ... done
Setting up the integral package (SHARK)            ... done
Starting the Coulomb interaction                   ... done (   0.1 sec)
Making the grid                                    ... done (   0.2 sec)
Mapping shells                                     ... done
Starting the XC term evaluation                    ... done (   0.0 sec)
  promolecular density results
     # of electrons  =     86.992383363
     EX              =   -111.092641091
     EC              =     -3.308505724
     EX+EC           =   -114.401146815
Transforming the Hamiltonian                       ... done (   0.0 sec)
Diagonalizing the Hamiltonian                      ... done (   0.0 sec)
Back transforming the eigenvectors                 ... done (   0.0 sec)
Now organizing SCF variables                       ... done
                      ------------------
                      INITIAL GUESS DONE (   0.5 sec)
                      ------------------
             **** ENERGY FILE WAS UPDATED (orca.en.tmp) ****
Finished Guess after   2.3 sec
Maximum memory used throughout the entire GUESS-calculation: 19.7 MB


           ************************************************************
           *        Program running with 32 parallel MPI-processes    *
           *              working on a common directory               *
           ************************************************************

-------------------------------------------------------------------------------------------
                                      ORCA LEAN-SCF
                              memory conserving SCF solver
-------------------------------------------------------------------------------------------

--------------------
CPCM SOLVATION MODEL
--------------------
CPCM parameters:
  Epsilon                                         ...       6.0200
  Refrac                                          ...       1.3723
  Rsolv                                           ...       1.3000
  Surface type                                    ... GAUSSIAN VDW
  Discretization scheme                           ... Constant charge density
    Threshold for H atoms                         ...       5.0000 (charges/Ang^2)
    Threshold for non-H atoms                     ...       5.0000 (charges/Ang^2)
  Epsilon function type                           ...         CPCM
Solvent:                                          ... CUSTOM
Radii:
  Scheme                                          ... Element-dependent radii
  Radius for C  used is    3.8550 Bohr (=   2.0400 Ang.)
  Radius for H  used is    2.4944 Bohr (=   1.3200 Ang.)
  Radius for N  used is    3.5149 Bohr (=   1.8600 Ang.)
  Radius for Cu used is    3.1747 Bohr (=   1.6800 Ang.)
Calculating surface                               ...        done! (  0.0s)
Cavity surface points                             ...         1638
Cavity Volume                                     ...    1077.5227
Cavity Surface-area                               ...     613.5614
Calculating surface distance matrix               ...        done! (  0.0s)
Performing Cholesky decomposition & store         ...        done! (  0.1s)
Overall time for CPCM initialization              ...                 0.1s

----------------------------------------D-I-I-S--------------------------------------------
Iteration    Energy (Eh)           Delta-E    RMSDP     MaxDP     DIISErr   Damp  Time(sec)
-------------------------------------------------------------------------------------------
               ***  Starting incremental Fock matrix formation  ***
    1    -1966.8803105148908799     0.00e+00  6.84e-03  3.95e-02  2.27e-01  0.700   1.5
    2    -1966.9746387263098768    -9.43e-02  5.04e-03  2.56e-02  1.00e-01  0.700   1.4
                               ***Turning on AO-DIIS***
    3    -1967.0135621180074850    -3.89e-02  2.56e-03  1.72e-02  2.99e-02  0.700   1.2
    4    -1967.0363317310639104    -2.28e-02  5.12e-03  4.22e-02  1.54e-02  0.000   1.6
    5    -1967.0860274816513993    -4.97e-02  9.71e-04  7.80e-03  4.59e-03  0.000   1.3
                              *** Initializing SOSCF ***
---------------------------------------S-O-S-C-F--------------------------------------
Iteration    Energy (Eh)           Delta-E    RMSDP     MaxDP     MaxGrad    Time(sec)
--------------------------------------------------------------------------------------
    6    -1967.0863163688522945    -2.89e-04  4.17e-04  2.85e-03  2.22e-03     1.4
               *** Restarting incremental Fock matrix formation ***
    7    -1967.0863453345054950    -2.90e-05  5.43e-04  5.77e-03  1.18e-03     1.5
    8    -1967.0862127365571723     1.33e-04  3.46e-04  3.08e-03  3.45e-03     4.9
    9    -1967.0863667799976611    -1.54e-04  4.22e-05  3.03e-04  5.39e-05     3.5
   10    -1967.0863666005543564     1.79e-07  2.20e-05  1.57e-04  7.06e-05     1.3
   11    -1967.0863670961257412    -4.96e-07  1.01e-05  6.29e-05  7.81e-06     1.4
   12    -1967.0863671038018765    -7.68e-09  5.15e-06  3.12e-05  9.36e-06     1.5
                 **** Energy Check signals convergence ****

               *****************************************************
               *                     SUCCESS                       *
               *           SCF CONVERGED AFTER  12 CYCLES          *
               *****************************************************

Recomputing exchange energy using gridx3       ... done (    1.425 sec)
Old exchange energy                            :    -22.291009319 Eh
New exchange energy                            :    -22.291015942 Eh
Exchange energy change after final integration :     -0.000006624 Eh
Total energy after final integration           :  -1967.086373722 Eh
             **** ENERGY FILE WAS UPDATED (orca.en.tmp) ****

----------------
TOTAL SCF ENERGY
----------------

Total Energy       :      -1967.08637372242083 Eh          -53527.14150 eV

Components:
Nuclear Repulsion  :        611.08871780992069 Eh           16628.56939 eV
Electronic Energy  :      -2578.07972497267383 Eh          -70153.11583 eV
One Electron Energy:      -3925.93245317543369 Eh         -106830.05319 eV
Two Electron Energy:       1347.85272820275986 Eh           36676.93735 eV
CPCM Dielectric    :         -0.09535993595157 Eh              -2.59488 eV

Virial components:
Potential Energy   :      -3930.21398818709895 Eh         -106946.55968 eV
Kinetic Energy     :       1963.12761446467812 Eh           53419.41818 eV
Virial Ratio       :          2.00201655726738

DFT components:
N(Alpha)           :       43.000023101759 electrons
N(Beta)            :       43.000023101759 electrons
N(Total)           :       86.000046203518 electrons
E(X)               :      -88.850564622085 Eh       
E(C)               :       -3.857272439574 Eh       
E(XC)              :      -92.707837061659 Eh       

CPCM Solvation Model Properties:
Surface-charge          :         -1.03215194779160
Corrected charge        :         -1.00000000000000
Outlying charge corr.   :          0.00006356947313 Eh               0.00173 eV
Free-energy (cav+disp)  :  This term is not implemented in the current solvation scheme

---------------
SCF CONVERGENCE
---------------

  Last Energy change         ...    7.6761e-09  Tolerance :   1.0000e-08
  Last MAX-Density change    ...    3.1220e-05  Tolerance :   1.0000e-07
  Last RMS-Density change    ...    5.1486e-06  Tolerance :   5.0000e-09
  Last DIIS Error            ...    2.2249e-03  Tolerance :   5.0000e-07
  Last Orbital Gradient      ...    9.3570e-06  Tolerance :   1.0000e-05
  Last Orbital Rotation      ...    2.2717e-05  Tolerance :   1.0000e-05


----------------
ORBITAL ENERGIES
----------------

  NO   OCC          E(Eh)            E(eV) 
   0   2.0000    -323.068407     -8791.1383 
   1   2.0000     -38.863977     -1057.5426 
   2   2.0000     -34.068855      -927.0607 
   3   2.0000     -34.068454      -927.0498 
   4   2.0000     -34.067920      -927.0352 
   5   2.0000     -14.394177      -391.6855 
   6   2.0000     -10.304945      -280.4118 
   7   2.0000     -10.223980      -278.2086 
   8   2.0000     -10.208562      -277.7891 
   9   2.0000     -10.207065      -277.7484 
  10   2.0000     -10.202592      -277.6266 
  11   2.0000     -10.201991      -277.6103 
  12   2.0000     -10.201062      -277.5850 
  13   2.0000      -4.354380      -118.4887 
  14   2.0000      -2.853080       -77.6363 
  15   2.0000      -2.848904       -77.5226 
  16   2.0000      -2.842187       -77.3398 
  17   2.0000      -0.984009       -26.7762 
  18   2.0000      -0.891985       -24.2721 
  19   2.0000      -0.802784       -21.8449 
  20   2.0000      -0.779832       -21.2203 
  21   2.0000      -0.714245       -19.4356 
  22   2.0000      -0.644208       -17.5298 
  23   2.0000      -0.627769       -17.0825 
  24   2.0000      -0.585455       -15.9310 
  25   2.0000      -0.559744       -15.2314 
  26   2.0000      -0.519577       -14.1384 
  27   2.0000      -0.491319       -13.3695 
  28   2.0000      -0.477762       -13.0006 
  29   2.0000      -0.472040       -12.8449 
  30   2.0000      -0.452112       -12.3026 
  31   2.0000      -0.445618       -12.1259 
  32   2.0000      -0.398762       -10.8509 
  33   2.0000      -0.393296       -10.7021 
  34   2.0000      -0.379592       -10.3292 
  35   2.0000      -0.372968       -10.1490 
  36   2.0000      -0.347167        -9.4469 
  37   2.0000      -0.338071        -9.1994 
  38   2.0000      -0.335335        -9.1249 
  39   2.0000      -0.327414        -8.9094 
  40   2.0000      -0.293085        -7.9753 
  41   2.0000      -0.288760        -7.8575 
  42   2.0000      -0.263916        -7.1815 
  43   0.0000      -0.115749        -3.1497 
  44   0.0000      -0.053459        -1.4547 
  45   0.0000      -0.043904        -1.1947 
  46   0.0000      -0.024926        -0.6783 
  47   0.0000       0.019896         0.5414 
  48   0.0000       0.024682         0.6716 
  49   0.0000       0.042719         1.1624 
  50   0.0000       0.047769         1.2999 
  51   0.0000       0.073294         1.9944 
  52   0.0000       0.077334         2.1044 
  53   0.0000       0.087777         2.3885 
*Only the first 10 virtual orbitals were printed.

                    ********************************
                    * MULLIKEN POPULATION ANALYSIS *
                    ********************************

-----------------------
MULLIKEN ATOMIC CHARGES
-----------------------
   0 C :   -0.113117
   1 C :   -0.204197
   2 C :    0.082560
   3 C :   -0.206036
   4 C :   -0.140437
   5 C :   -0.124154
   6 H :    0.149409
   7 H :    0.150827
   8 H :    0.148429
   9 H :    0.150678
  10 H :    0.148520
  11 C :    0.196847
  12 N :   -0.443467
  13 H :    0.291220
  14 H :    0.294743
  15 H :    0.199319
  16 H :   -0.092804
  17 Cu:    0.511661
Sum of atomic charges:    1.0000000

--------------------------------
MULLIKEN REDUCED ORBITAL CHARGES
--------------------------------
  0 C s       :     3.207910  s :     3.207910
      pz      :     0.943388  p :     2.817435
      px      :     0.953889
      py      :     0.920157
      dz2     :     0.012689  d :     0.080485
      dxz     :     0.016504
      dyz     :     0.011775
      dx2y2   :     0.021764
      dxy     :     0.017753
      f0      :     0.000797  f :     0.007288
      f+1     :     0.000363
      f-1     :     0.001390
      f+2     :     0.000912
      f-2     :     0.001456
      f+3     :     0.001563
      f-3     :     0.000807

  1 C s       :     3.265213  s :     3.265213
      pz      :     0.977494  p :     2.851085
      px      :     0.894319
      py      :     0.979272
      dz2     :     0.007945  d :     0.080515
      dxz     :     0.019899
      dyz     :     0.011598
      dx2y2   :     0.023141
      dxy     :     0.017932
      f0      :     0.000591  f :     0.007385
      f+1     :     0.001213
      f-1     :     0.000642
      f+2     :     0.001150
      f-2     :     0.001151
      f+3     :     0.001573
      f-3     :     0.001065

  2 C s       :     3.234942  s :     3.234942
      pz      :     0.960854  p :     2.548695
      px      :     0.759729
      py      :     0.828111
      dz2     :     0.022993  d :     0.123700
      dxz     :     0.022144
      dyz     :     0.015568
      dx2y2   :     0.034567
      dxy     :     0.028428
      f0      :     0.000788  f :     0.010103
      f+1     :     0.001340
      f-1     :     0.001478
      f+2     :     0.001140
      f-2     :     0.001880
      f+3     :     0.001882
      f-3     :     0.001595

  3 C s       :     3.263067  s :     3.263067
      pz      :     0.967325  p :     2.853426
      px      :     0.988935
      py      :     0.897166
      dz2     :     0.013430  d :     0.082151
      dxz     :     0.016975
      dyz     :     0.012190
      dx2y2   :     0.024337
      dxy     :     0.015219
      f0      :     0.000828  f :     0.007391
      f+1     :     0.000341
      f-1     :     0.001402
      f+2     :     0.000927
      f-2     :     0.001493
      f+3     :     0.001569
      f-3     :     0.000833

  4 C s       :     3.226300  s :     3.226300
      pz      :     0.946098  p :     2.825504
      px      :     0.901051
      py      :     0.978354
      dz2     :     0.008779  d :     0.081294
      dxz     :     0.020002
      dyz     :     0.010962
      dx2y2   :     0.023729
      dxy     :     0.017822
      f0      :     0.000607  f :     0.007340
      f+1     :     0.001165
      f-1     :     0.000658
      f+2     :     0.001111
      f-2     :     0.001216
      f+3     :     0.001583
      f-3     :     0.001000

  5 C s       :     3.222148  s :     3.222148
      pz      :     0.922748  p :     2.814157
      px      :     0.960405
      py      :     0.931004
      dz2     :     0.017338  d :     0.080640
      dxz     :     0.014685
      dyz     :     0.010398
      dx2y2   :     0.014824
      dxy     :     0.023394
      f0      :     0.000442  f :     0.007209
      f+1     :     0.001049
      f-1     :     0.001341
      f+2     :     0.000948
      f-2     :     0.001254
      f+3     :     0.000982
      f-3     :     0.001194

  6 H s       :     0.828272  s :     0.828272
      pz      :     0.006179  p :     0.022319
      px      :     0.011608
      py      :     0.004532

  7 H s       :     0.826938  s :     0.826938
      pz      :     0.004441  p :     0.022235
      px      :     0.010758
      py      :     0.007036

  8 H s       :     0.829227  s :     0.829227
      pz      :     0.008111  p :     0.022344
      px      :     0.003640
      py      :     0.010593

  9 H s       :     0.826960  s :     0.826960
      pz      :     0.006202  p :     0.022361
      px      :     0.011223
      py      :     0.004936

 10 H s       :     0.829177  s :     0.829177
      pz      :     0.008039  p :     0.022303
      px      :     0.003584
      py      :     0.010680

 11 C s       :     3.034797  s :     3.034797
      pz      :     0.839146  p :     2.606407
      px      :     0.837307
      py      :     0.929954
      dz2     :     0.026997  d :     0.151442
      dxz     :     0.034850
      dyz     :     0.029312
      dx2y2   :     0.034277
      dxy     :     0.026006
      f0      :     0.001531  f :     0.010507
      f+1     :     0.001874
      f-1     :     0.000666
      f+2     :     0.001896
      f-2     :     0.001881
      f+3     :     0.001536
      f-3     :     0.001123

 12 N s       :     3.494428  s :     3.494428
      pz      :     1.157889  p :     3.911358
      px      :     1.449710
      py      :     1.303759
      dz2     :     0.008401  d :     0.034791
      dxz     :     0.005946
      dyz     :     0.007216
      dx2y2   :     0.006951
      dxy     :     0.006276
      f0      :     0.000279  f :     0.002891
      f+1     :     0.000481
      f-1     :     0.000572
      f+2     :     0.000412
      f-2     :     0.000444
      f+3     :     0.000427
      f-3     :     0.000276

 13 H s       :     0.670661  s :     0.670661
      pz      :     0.018277  p :     0.038119
      px      :     0.009384
      py      :     0.010457

 14 H s       :     0.667837  s :     0.667837
      pz      :     0.006622  p :     0.037419
      px      :     0.011290
      py      :     0.019507

 15 H s       :     0.777183  s :     0.777183
      pz      :     0.006990  p :     0.023498
      px      :     0.004851
      py      :     0.011657

 16 H s       :     1.078380  s :     1.078380
      pz      :     0.006186  p :     0.014424
      px      :     0.005448
      py      :     0.002789

 17 Cus       :     6.449956  s :     6.449956
      pz      :     4.113332  p :    12.276335
      px      :     4.138071
      py      :     4.024932
      dz2     :     1.936312  d :     9.761953
      dxz     :     1.906033
      dyz     :     1.992457
      dx2y2   :     1.972801
      dxy     :     1.954351
      f0      :     0.000009  f :     0.000094
      f+1     :     0.000006
      f-1     :     0.000013
      f+2     :     0.000018
      f-2     :     0.000017
      f+3     :     0.000019
      f-3     :     0.000013



                     *******************************
                     * LOEWDIN POPULATION ANALYSIS *
                     *******************************

----------------------
LOEWDIN ATOMIC CHARGES
----------------------
   0 C :   -0.123657
   1 C :   -0.086899
   2 C :   -0.153599
   3 C :   -0.094704
   4 C :   -0.124178
   5 C :   -0.117067
   6 H :    0.154307
   7 H :    0.153762
   8 H :    0.158768
   9 H :    0.158470
  10 H :    0.154032
  11 C :   -0.181522
  12 N :    0.045955
  13 H :    0.197395
  14 H :    0.204078
  15 H :    0.170783
  16 H :    0.044594
  17 Cu:    0.439484

-------------------------------
LOEWDIN REDUCED ORBITAL CHARGES
-------------------------------
  0 C s       :     2.765588  s :     2.765588
      pz      :     0.935407  p :     2.933898
      px      :     1.002919
      py      :     0.995571
      dz2     :     0.047076  d :     0.380864
      dxz     :     0.077148
      dyz     :     0.058931
      dx2y2   :     0.103754
      dxy     :     0.093956
      f0      :     0.005194  f :     0.043306
      f+1     :     0.003209
      f-1     :     0.005203
      f+2     :     0.005019
      f-2     :     0.008514
      f+3     :     0.010064
      f-3     :     0.006104

  1 C s       :     2.757194  s :     2.757194
      pz      :     0.916627  p :     2.905745
      px      :     1.034088
      py      :     0.955030
      dz2     :     0.035229  d :     0.380854
      dxz     :     0.082585
      dyz     :     0.055285
      dx2y2   :     0.116203
      dxy     :     0.091552
      f0      :     0.003869  f :     0.043106
      f+1     :     0.007669
      f-1     :     0.001646
      f+2     :     0.004669
      f-2     :     0.007688
      f+3     :     0.010254
      f-3     :     0.007312

  2 C s       :     2.702184  s :     2.702184
      pz      :     0.932444  p :     2.875369
      px      :     0.975792
      py      :     0.967132
      dz2     :     0.084620  d :     0.518187
      dxz     :     0.099999
      dyz     :     0.070698
      dx2y2   :     0.117710
      dxy     :     0.145161
      f0      :     0.005231  f :     0.057859
      f+1     :     0.007211
      f-1     :     0.005362
      f+2     :     0.006660
      f-2     :     0.011529
      f+3     :     0.012552
      f-3     :     0.009313

  3 C s       :     2.755019  s :     2.755019
      pz      :     0.930081  p :     2.916584
      px      :     1.003637
      py      :     0.982866
      dz2     :     0.048678  d :     0.379876
      dxz     :     0.074846
      dyz     :     0.059277
      dx2y2   :     0.107654
      dxy     :     0.089422
      f0      :     0.005349  f :     0.043224
      f+1     :     0.003128
      f-1     :     0.005337
      f+2     :     0.004930
      f-2     :     0.008265
      f+3     :     0.010008
      f-3     :     0.006206

  4 C s       :     2.765582  s :     2.765582
      pz      :     0.921340  p :     2.932681
      px      :     1.055995
      py      :     0.955345
      dz2     :     0.035483  d :     0.382524
      dxz     :     0.082159
      dyz     :     0.054315
      dx2y2   :     0.119288
      dxy     :     0.091279
      f0      :     0.003892  f :     0.043391
      f+1     :     0.007515
      f-1     :     0.001662
      f+2     :     0.004675
      f-2     :     0.007901
      f+3     :     0.010574
      f-3     :     0.007174

  5 C s       :     2.767904  s :     2.767904
      pz      :     0.939021  p :     2.924594
      px      :     1.009447
      py      :     0.976126
      dz2     :     0.068063  d :     0.381450
      dxz     :     0.068395
      dyz     :     0.053984
      dx2y2   :     0.075764
      dxy     :     0.115244
      f0      :     0.003802  f :     0.043120
      f+1     :     0.005611
      f-1     :     0.004981
      f+2     :     0.006330
      f-2     :     0.007903
      f+3     :     0.007650
      f-3     :     0.006842

  6 H s       :     0.786395  s :     0.786395
      pz      :     0.016756  p :     0.059298
      px      :     0.029581
      py      :     0.012961

  7 H s       :     0.786918  s :     0.786918
      pz      :     0.012639  p :     0.059320
      px      :     0.027763
      py      :     0.018918

  8 H s       :     0.781613  s :     0.781613
      pz      :     0.021511  p :     0.059619
      px      :     0.010697
      py      :     0.027411

  9 H s       :     0.781567  s :     0.781567
      pz      :     0.017022  p :     0.059963
      px      :     0.029040
      py      :     0.013902

 10 H s       :     0.786683  s :     0.786683
      pz      :     0.021138  p :     0.059285
      px      :     0.010792
      py      :     0.027356

 11 C s       :     2.784711  s :     2.784711
      pz      :     0.894519  p :     2.819439
      px      :     0.930354
      py      :     0.994565
      dz2     :     0.095252  d :     0.517306
      dxz     :     0.124122
      dyz     :     0.102875
      dx2y2   :     0.109642
      dxy     :     0.085416
      f0      :     0.009841  f :     0.060065
      f+1     :     0.012273
      f-1     :     0.003737
      f+2     :     0.009081
      f-2     :     0.010207
      f+3     :     0.008365
      f-3     :     0.006562

 12 N s       :     2.982878  s :     2.982878
      pz      :     1.188830  p :     3.807601
      px      :     1.388616
      py      :     1.230156
      dz2     :     0.042525  d :     0.152841
      dxz     :     0.031083
      dyz     :     0.036788
      dx2y2   :     0.022659
      dxy     :     0.019785
      f0      :     0.001215  f :     0.010725
      f+1     :     0.002037
      f-1     :     0.001924
      f+2     :     0.001353
      f-2     :     0.001982
      f+3     :     0.001161
      f-3     :     0.001053

 13 H s       :     0.692424  s :     0.692424
      pz      :     0.049960  p :     0.110181
      px      :     0.027755
      py      :     0.032466

 14 H s       :     0.686894  s :     0.686894
      pz      :     0.018387  p :     0.109028
      px      :     0.032165
      py      :     0.058476

 15 H s       :     0.766802  s :     0.766802
      pz      :     0.018871  p :     0.062415
      px      :     0.011235
      py      :     0.032309

 16 H s       :     0.921784  s :     0.921784
      pz      :     0.013571  p :     0.033622
      px      :     0.013232
      py      :     0.006819

 17 Cus       :     6.279347  s :     6.279347
      pz      :     4.204389  p :    12.338532
      px      :     4.101335
      py      :     4.032808
      dz2     :     1.972727  d :     9.942501
      dxz     :     1.955876
      dyz     :     2.026061
      dx2y2   :     1.998700
      dxy     :     1.989138
      f0      :     0.000013  f :     0.000135
      f+1     :     0.000009
      f-1     :     0.000019
      f+2     :     0.000027
      f-2     :     0.000022
      f+3     :     0.000026
      f-3     :     0.000019



                      *****************************
                      * MAYER POPULATION ANALYSIS *
                      *****************************

  NA   - Mulliken gross atomic population
  ZA   - Total nuclear charge
  QA   - Mulliken gross atomic charge
  VA   - Mayer's total valence
  BVA  - Mayer's bonded valence
  FA   - Mayer's free valence

  ATOM       NA         ZA         QA         VA         BVA        FA
  0 C      6.1131     6.0000    -0.1131     3.8704     3.8704     0.0000
  1 C      6.2042     6.0000    -0.2042     3.9599     3.9599     0.0000
  2 C      5.9174     6.0000     0.0826     3.7160     3.7160    -0.0000
  3 C      6.2060     6.0000    -0.2060     3.9114     3.9114     0.0000
  4 C      6.1404     6.0000    -0.1404     3.9164     3.9164     0.0000
  5 C      6.1242     6.0000    -0.1242     3.8887     3.8887     0.0000
  6 H      0.8506     1.0000     0.1494     0.9641     0.9641    -0.0000
  7 H      0.8492     1.0000     0.1508     0.9631     0.9631    -0.0000
  8 H      0.8516     1.0000     0.1484     0.9682     0.9682     0.0000
  9 H      0.8493     1.0000     0.1507     0.9745     0.9745     0.0000
 10 H      0.8515     1.0000     0.1485     0.9659     0.9659    -0.0000
 11 C      5.8032     6.0000     0.1968     3.7301     3.7301     0.0000
 12 N      7.4435     7.0000    -0.4435     3.2067     3.2067     0.0000
 13 H      0.7088     1.0000     0.2912     0.9284     0.9284     0.0000
 14 H      0.7053     1.0000     0.2947     0.9230     0.9230     0.0000
 15 H      0.8007     1.0000     0.1993     0.9631     0.9631     0.0000
 16 H      1.0928     1.0000    -0.0928     1.0130     1.0130     0.0000
 17 Cu    28.4883    29.0000     0.5117     1.5034     1.5034     0.0000

  Mayer bond orders larger than 0.100000
B(  0-C ,  1-C ) :   1.4231 B(  0-C ,  5-C ) :   1.3843 B(  0-C ,  6-H ) :   0.9715 
B(  1-C ,  2-C ) :   1.3511 B(  1-C ,  8-H ) :   0.9682 B(  2-C ,  3-C ) :   1.2963 
B(  2-C , 11-C ) :   1.0281 B(  3-C ,  4-C ) :   1.4476 B(  3-C ,  9-H ) :   0.9660 
B(  4-C ,  5-C ) :   1.3800 B(  4-C , 10-H ) :   0.9692 B(  5-C ,  7-H ) :   0.9658 
B( 11-C , 12-N ) :   0.9914 B( 11-C , 15-H ) :   0.9780 B( 11-C , 16-H ) :   0.2505 
B( 11-C , 17-Cu) :   0.4541 B( 12-N , 13-H ) :   0.8972 B( 12-N , 14-H ) :   0.8969 
B( 12-N , 17-Cu) :   0.2933 B( 16-H , 17-Cu) :   0.6276 

-------
TIMINGS
-------

Total SCF time: 0 days 0 hours 0 min 26 sec 

Total time                  ....      26.915 sec
Sum of individual times     ....      25.383 sec  ( 94.3%)

SCF preparation             ....       1.422 sec  (  5.3%)
Fock matrix formation       ....      22.729 sec  ( 84.4%)
  Startup                   ....       0.039 sec  (  0.2% of F)
  Split-RI-J                ....       1.255 sec  (  5.5% of F)
  Chain of spheres X        ....       8.684 sec  ( 38.2% of F)
  XC integration            ....      11.682 sec  ( 51.4% of F)
    XC Preparation          ....       0.000 sec  (  0.0% of XC)
    Basis function eval.    ....       0.188 sec  (  1.6% of XC)
    Density eval.           ....       0.190 sec  (  1.6% of XC)
    XC-Functional eval.     ....       0.015 sec  (  0.1% of XC)
    XC-Potential eval.      ....       0.184 sec  (  1.6% of XC)
  CPCM terms                ....       1.477 sec  (  6.5% of F)
Diagonalization             ....       0.000 sec  (  0.0%)
Density matrix formation    ....       0.168 sec  (  0.6%)
Total Energy calculation    ....       0.097 sec  (  0.4%)
Population analysis         ....       0.057 sec  (  0.2%)
Orbital Transformation      ....       0.102 sec  (  0.4%)
Orbital Orthonormalization  ....       0.000 sec  (  0.0%)
DIIS solution               ....       0.465 sec  (  1.7%)
SOSCF solution              ....       0.342 sec  (  1.3%)
Finished LeanSCF after  27.1 sec

Maximum memory used throughout the entire LEANSCF-calculation: 32.5 MB


-------------------------------------------------------------------------------
                          DFT DISPERSION CORRECTION                            
                                                                               
                              DFTD3 V3.1  Rev 1                                
                          USING Becke-Johnson damping                          
-------------------------------------------------------------------------------
The B3LYP functional is recognized
Active option DFTDOPT                   ...         4   

molecular C6(AA) [au] = 4478.884144 


            DFT-D V3
 parameters
 s6 scaling factor         :     1.0000 
 a1 scaling factor         :     0.3981 
 s8 scaling factor         :     1.9889 
 a2 scaling factor         :     4.4211 
 ad hoc parameters k1-k3   :    16.0000     1.3333    -4.0000 

 Edisp/kcal,au: -22.430920808199  -0.035745943835 
 E6   /kcal   : -10.092257466 
 E8   /kcal   : -12.338663342 
 % E8         :  55.007386666 

-------------------------   ----------------
Dispersion correction           -0.035745944
-------------------------   ----------------


-------------------------   --------------------
FINAL SINGLE POINT ENERGY     -1967.122119666255
-------------------------   --------------------



           ************************************************************
           *        Program running with 32 parallel MPI-processes    *
           *              working on a common directory               *
           ************************************************************
------------------------------------------------------------------------------
                         ORCA SCF GRADIENT CALCULATION
------------------------------------------------------------------------------

Nuc. rep. gradient        (SHARK) ... done (  0.0 sec)
HCore & Overlap gradient  (SHARK) ... done (  0.1 sec)
Split-RIJ-J gradient      (SHARK) ... done (  0.4 sec)
done (  4.6 sec)
XC gradient                       ... done (  0.6 sec)
CPCM gradient                     ... done (  0.5 sec)
Dispersion correction             ... done (  0.0 sec)

-------------------
DISPERSION GRADIENT
-------------------

   1   C   :   -0.000374581    0.000000517   -0.000085756
   2   C   :   -0.000561413    0.000079447   -0.000114320
   3   C   :   -0.000275496   -0.000042746    0.000011271
   4   C   :   -0.000376763   -0.000409552    0.000301264
   5   C   :   -0.000214125   -0.000330484    0.000205367
   6   C   :   -0.000254833   -0.000153748    0.000052587
   7   H   :   -0.000258540    0.000063839   -0.000119942
   8   H   :   -0.000234497   -0.000154766    0.000049246
   9   H   :   -0.000215528    0.000229609   -0.000195411
  10   H   :    0.000057221   -0.000291187    0.000285458
  11   H   :   -0.000011770   -0.000240927    0.000177751
  12   C   :    0.000347831    0.000236243   -0.000149605
  13   N   :    0.000432846    0.000312891    0.000178986
  14   H   :    0.000211821    0.000121289    0.000287209
  15   H   :    0.000170440    0.000239229    0.000152675
  16   H   :    0.000066391    0.000274633   -0.000126021
  17   H   :    0.000306764    0.000001360   -0.000257744
  18   Cu  :    0.001184231    0.000064353   -0.000653016

Difference to translation invariance:
           :    0.0000000000    0.0000000000   -0.0000000000

Difference to rotation invariance:
           :   -0.0000000000    0.0000000000    0.0000000000

Norm of the Dispersion gradient    ...    0.0021609783
RMS gradient                       ...    0.0002940719
MAX gradient                       ...    0.0011842312

------------------
CARTESIAN GRADIENT
------------------

   1   C   :    0.000001920   -0.000004544    0.000005341
   2   C   :   -0.000005858   -0.000003767    0.000000119
   3   C   :   -0.000006055   -0.000003098    0.000000706
   4   C   :   -0.000000797    0.000000102    0.000000865
   5   C   :    0.000004786    0.000001792    0.000002335
   6   C   :    0.000003883   -0.000001191    0.000006128
   7   H   :    0.000000088   -0.000006004    0.000007033
   8   H   :    0.000005080   -0.000002606    0.000007694
   9   H   :   -0.000004634   -0.000005437    0.000002056
  10   H   :    0.000004571    0.000003304    0.000000640
  11   H   :    0.000006420    0.000001245    0.000004650
  12   C   :   -0.000000502    0.000006717   -0.000000890
  13   N   :   -0.000002438    0.000005419   -0.000004089
  14   H   :    0.000003526    0.000005644   -0.000007862
  15   H   :   -0.000001401   -0.000000452   -0.000007944
  16   H   :   -0.000004998    0.000001246   -0.000005977
  17   H   :   -0.000004484    0.000000639   -0.000005009
  18   Cu  :    0.000000892    0.000000991   -0.000005796

Difference to translation invariance:
           :   -0.0000000003   -0.0000000001   -0.0000000000

Difference to rotation invariance:
           :   -0.0002109586    0.0003944510    0.0002978658

Norm of the Cartesian gradient     ...    0.0000312594
RMS gradient                       ...    0.0000042539
MAX gradient                       ...    0.0000079437

-------
TIMINGS
-------

Total SCF gradient time     ....        6.221 sec

Densities                   ....       0.002 sec  (  0.0%)
One electron gradient       ....       0.053 sec  (  0.9%)
RI-J Coulomb gradient       ....       0.393 sec  (  6.3%)
COSX gradient               ....       4.608 sec  ( 74.1%)
XC gradient                 ....       0.610 sec  (  9.8%)
CPCM gradient               ....       0.525 sec  (  8.4%)
   A-Matrix (El+Nuc)        ....       0.005 sec  (  0.1%)
   Potential                ....       0.521 sec  (  8.4%)

Maximum memory used throughout the entire SCFGRAD-calculation: 40.5 MB


           ************************************************************
           *        Program running with 32 parallel MPI-processes    *
           *              working on a common directory               *
           ************************************************************

------------------------------------------------------------------------------
                              ORCA PROPERTY CALCULATIONS
------------------------------------------------------------------------------

GBWName                                 ... orca.gbw
Number of atoms                         ...     18
Number of basis functions               ...    347
Max core memory                         ...   2000 MB

Electric properties:
Dipole moment                           ... YES
Quadrupole moment                       ...  NO
Static polarizability (Dipole/Dipole)   ...  NO
Static polarizability (Dipole/Quad.)    ...  NO
Static polarizability (Quad./Quad.)     ...  NO
Static polarizability (Velocity)        ...  NO
Static hyperpolarizability              ...  NO

Atomic electric properties:
Dipole moment                           ...  NO
Quadrupole moment                       ...  NO
Static polarizability                   ...  NO

Choice of electric origin               ... Center of mass
Position of electric origin             ...     0.436079     3.981542     3.480011

General magnetic properties:
Magnetizability                         ...  NO

EPR properties:
g-Tensor (aka g-matrix)                 ...  NO
Zero-Field splitting spin-orbit         ...  NO
Zero-field splitting spin-spin          ...  NO
Hyperfine couplings                     ...  NO (   0 nuclei)
Quadrupole couplings                    ...  NO (   0 nuclei)
Contact density                         ...  NO (   0 nuclei)

NMR properties:
Chemical shifts                         ...  NO (   0 nuclei)
Spin-rotation constants                 ...  NO (   0 nuclei)
Spin-spin couplings                     ...  NO (   0 nuclei,    0 pairs)

Choice of magnetic origin               ... GIAO
Position of magnetic origin             ...     0.000000     0.000000     0.000000

Properties with geometric perturbations:
SCF Hessian                             ...  NO
IR spectrum                             ...  NO
VCD spectrum                            ...  NO
X-ray spectroscopy properties:
SCF XES/XAS/RIXS spectra                ...  NO

SCF SOC stabilization energy            ...  NO
Diagonal Born-Oppenheimer correction    ...  NO

-------------
DIPOLE MOMENT
-------------

Method             : SCF
Type of density    : Electron Density
Multiplicity       :   1
Irrep              :   0
Energy             : -1967.0863737224208307 Eh
Basis              : AO
                                X                 Y                 Z
Electronic contribution:     20.883479933       1.363638880      -6.037442518
Nuclear contribution   :    -18.551220299      -0.232924908       6.637357907
                        -----------------------------------------
Total Dipole Moment    :      2.332259635       1.130713972       0.599915389
                        -----------------------------------------
Magnitude (a.u.)       :      2.660422441
Magnitude (Debye)      :      6.762256440



--------------------
Rotational spectrum 
--------------------
 
Rotational constants in cm-1:             0.103897             0.020434             0.019540 
Rotational constants in MHz :          3114.758566           612.589579           585.786601 

Dipole components along the rotational axes: 
x,y,z [a.u.] :    -2.377471     0.190240     1.178681 
x,y,z [Debye]:    -6.043050     0.483552     2.995970 

 

Dipole moment calculation done in   0.0 sec 

Maximum memory used throughout the entire PROP-calculation: 18.3 MB



--------------------------------------------------------------------------------
                   Intrinsic Reaction Coordinate Calculation
--------------------------------------------------------------------------------

System:
Nr. of atoms                        .... 18
Algorithm: SD (steepest descent step) plus correction
Settings:
Max. no of cycles        MaxIter    .... 2000
Direction                           .... Forward and backward
Initial displacement Hessian type   .... Compute numerically
Following Hessian mode              .... 0
Initial displacement type           .... Energy
  Initial displacement energy change.... 2.000 mEh
Coordinate system following type    .... Cartesian
Length of steepest descent step     .... 0.150 bohr
Do parabolic fit 
  if SD step is uphill              .... YES
Do Correction to SD step            .... YES
Scaling for length of correction
  compared to SD step               .... 0.333
Do parabolic fit to SD correction   .... YES
Only interpolate for parabolic fit  .... YES
Do update to length of
  SD step and correction            .... YES
Convergence Tolerances:
  Max. Gradient            TolMAXG  ....  2.0000e-03 Eh/bohr
  RMS Gradient             TolRMSG  ....  5.0000e-04 Eh/bohr
Storing full IRC trajectory in      .... orca_IRC_Full_trj.xyz
Storing forward trajectory in       .... orca_IRC_F_trj.xyz
Storing backward trajectory in      .... orca_IRC_B_trj.xyz



----------------------------------------------------------------------------
                           ORCA NUMERICAL FREQUENCIES
                              (32-process run)
----------------------------------------------------------------------------

Number of atoms                ... 18
Central differences            ... NOT used
Translation invariance         ... used
Number of displacements        ... 54 - 3
Numerical increment            ... 5.000e-03 bohr
IR-spectrum generation         ... on
Raman-spectrum generation      ... off
Surface Crossing Hessian       ... off

The output will be reduced. Please look at the following files:
SCF program output             ... >orca.lastscf
Integral program output        ... >orca.lastint
Gradient program output        ... >orca.lastgrad
Dipole moment program output   ... >orca.lastmom

List of participating nodes    ...  orca.hostnames

	<< Calculating gradient on displaced geometry   2 (of  52) >>
	<< Calculating gradient on displaced geometry  30 (of  52) >>
	<< Calculating gradient on displaced geometry   1 (of  52) >>
	<< Calculating gradient on displaced geometry   7 (of  52) >>
	<< Calculating gradient on displaced geometry   3 (of  52) >>
	<< Calculating gradient on displaced geometry  11 (of  52) >>
	<< Calculating gradient on displaced geometry   8 (of  52) >>
	<< Calculating gradient on displaced geometry  10 (of  52) >>
	<< Calculating gradient on displaced geometry   9 (of  52) >>
	<< Calculating gradient on displaced geometry   6 (of  52) >>
	<< Calculating gradient on displaced geometry  23 (of  52) >>
	<< Calculating gradient on displaced geometry  14 (of  52) >>
	<< Calculating gradient on displaced geometry  12 (of  52) >>
	<< Calculating gradient on displaced geometry   4 (of  52) >>
	<< Calculating gradient on displaced geometry  18 (of  52) >>
	<< Calculating gradient on displaced geometry   5 (of  52) >>
	<< Calculating gradient on displaced geometry  27 (of  52) >>
	<< Calculating gradient on displaced geometry  16 (of  52) >>
	<< Calculating gradient on displaced geometry  21 (of  52) >>
	<< Calculating gradient on displaced geometry  31 (of  52) >>
	<< Calculating gradient on displaced geometry  17 (of  52) >>
	<< Calculating gradient on displaced geometry  29 (of  52) >>
	<< Calculating gradient on displaced geometry  15 (of  52) >>
	<< Calculating gradient on displaced geometry  13 (of  52) >>
	<< Calculating gradient on displaced geometry  32 (of  52) >>
	<< Calculating gradient on displaced geometry  26 (of  52) >>
	<< Calculating gradient on displaced geometry  20 (of  52) >>
	<< Calculating gradient on displaced geometry  28 (of  52) >>
	<< Calculating gradient on displaced geometry  19 (of  52) >>
	<< Calculating gradient on displaced geometry  24 (of  52) >>
	<< Calculating gradient on displaced geometry  22 (of  52) >>
	<< Calculating gradient on displaced geometry  25 (of  52) >>
	<< Calculating gradient on displaced geometry  33 (of  52) >>
	<< Calculating gradient on displaced geometry  34 (of  52) >>
	<< Calculating gradient on displaced geometry  36 (of  52) >>
	<< Calculating gradient on displaced geometry  35 (of  52) >>
	<< Calculating gradient on displaced geometry  38 (of  52) >>
	<< Calculating gradient on displaced geometry  37 (of  52) >>
	<< Calculating gradient on displaced geometry  39 (of  52) >>
	<< Calculating gradient on displaced geometry  40 (of  52) >>
	<< Calculating gradient on displaced geometry  41 (of  52) >>
	<< Calculating gradient on displaced geometry  43 (of  52) >>
	<< Calculating gradient on displaced geometry  42 (of  52) >>
	<< Calculating gradient on displaced geometry  44 (of  52) >>
	<< Calculating gradient on displaced geometry  45 (of  52) >>
	<< Calculating gradient on displaced geometry  46 (of  52) >>
	<< Calculating gradient on displaced geometry  47 (of  52) >>
[...]
   14     -1967.136867   -9.254130    0.005093  0.001211
   15     -1967.137494   -9.647347    0.004860  0.001251
   16     -1967.138020   -9.977561    0.004589  0.001172
   17     -1967.138244   -10.118093    0.004476  0.001128
   18     -1967.138493   -10.274561    0.004343  0.000969
   19     -1967.138760   -10.441927    0.004194  0.000937
   20     -1967.138998   -10.591222    0.004041  0.000929
   21     -1967.139225   -10.734009    0.003895  0.000876
   22     -1967.139452   -10.875971    0.003749  0.000835
   23     -1967.139718   -11.043042    0.003608  0.000801
   24     -1967.139845   -11.122736    0.003467  0.000761
   25     -1967.140080   -11.270521    0.003330  0.000731
   26     -1967.140277   -11.393680    0.003197  0.000702
   27     -1967.140464   -11.511368    0.003070  0.000674
   28     -1967.140637   -11.619494    0.002943  0.000741
   29     -1967.140715   -11.668661    0.002891  0.000664
   30     -1967.140798   -11.720524    0.002835  0.000631
   31     -1967.140860   -11.759730    0.002776  0.000609
   32     -1967.140961   -11.823302    0.002717  0.000597
   33     -1967.141042   -11.873813    0.002660  0.000598
   34     -1967.141120   -11.922679    0.002603  0.000572
   35     -1967.141197   -11.971354    0.002547  0.000604
   36     -1967.141268   -12.015933    0.002493  0.000551
   37     -1967.141345   -12.064045    0.002437  0.000559
   38     -1967.141415   -12.107775    0.002382  0.000528
   39     -1967.141487   -12.152988    0.002325  0.000535
   40     -1967.141553   -12.194724    0.002273  0.000507
   41     -1967.141623   -12.238554    0.002219  0.000504
   42     -1967.141688   -12.279047    0.002162  0.000485
   43     -1967.141757   -12.322336    0.002107  0.000474
   44     -1967.141804   -12.352192    0.002052  0.000620
   45     -1967.141837   -12.372873    0.002037  0.000479
   46     -1967.141883   -12.401622    0.002011  0.000491
   47     -1967.141897   -12.410438    0.001987  0.000502
   48     -1967.141921   -12.425304    0.001963  0.000447

                      ***********************HURRAY********************
                      ***            THE IRC HAS CONVERGED          ***
                      *************************************************


         *************************************************************
         *                          BACKWARD IRC                     *
         *************************************************************

Iteration    E(Eh)      dE(kcal/mol)  max(|G|)   RMS(G) 
Convergence thresholds                0.002000  0.000500            
    0     -1967.124432   -1.450797    0.013548  0.003054
    1     -1967.128179   -3.802362    0.019874  0.004412
    2     -1967.133463   -7.118203    0.025990  0.005520
    3     -1967.139815   -11.103897    0.028442  0.006038
    4     -1967.146176   -15.095469    0.025081  0.005721
    5     -1967.151785   -18.615266    0.021519  0.004885
    6     -1967.156345   -21.476904    0.019615  0.004011
    7     -1967.160267   -23.937845    0.017255  0.003408
    8     -1967.163664   -26.069666    0.014997  0.002976
    9     -1967.166694   -27.970753    0.013013  0.002697
   10     -1967.169479   -29.718182    0.011530  0.002474
   11     -1967.172077   -31.348800    0.010293  0.002306
   12     -1967.174459   -32.843560    0.009384  0.002123
   13     -1967.176652   -34.219491    0.008341  0.001943
   14     -1967.178609   -35.447602    0.007524  0.001794
   15     -1967.180284   -36.498332    0.006505  0.001811
   16     -1967.180799   -36.822042    0.006206  0.001874
   17     -1967.181037   -36.970895    0.006081  0.001495
   18     -1967.181400   -37.198822    0.005876  0.001356
   19     -1967.181750   -37.418312    0.005669  0.001312
   20     -1967.182089   -37.631256    0.005467  0.001242
   21     -1967.182416   -37.836382    0.005276  0.001192
   22     -1967.182752   -38.047361    0.005091  0.001133
   23     -1967.183039   -38.227080    0.004909  0.001083
   24     -1967.183346   -38.420263    0.004729  0.001053
   25     -1967.183594   -38.575570    0.004544  0.000989
   26     -1967.183880   -38.755051    0.004352  0.000934
   27     -1967.184122   -38.907028    0.004147  0.000882
   28     -1967.184278   -39.004650    0.005538  0.001872
   29     -1967.184371   -39.063508    0.003907  0.001106
   30     -1967.184429   -39.099643    0.003868  0.001106
   31     -1967.184437   -39.104382    0.003827  0.001095
   32     -1967.184495   -39.141192    0.003788  0.000806
   33     -1967.184532   -39.164363    0.003735  0.000827
   34     -1967.184582   -39.195809    0.003710  0.000779
   35     -1967.184629   -39.225129    0.003657  0.000811
   36     -1967.184679   -39.256314    0.003605  0.000771
   37     -1967.184730   -39.288669    0.003550  0.000749
   38     -1967.184792   -39.327326    0.003497  0.000767
   39     -1967.184820   -39.344886    0.003443  0.000736
   40     -1967.184882   -39.383827    0.003390  0.000791
   41     -1967.184915   -39.404885    0.003338  0.000696
   42     -1967.184964   -39.435277    0.003282  0.000702
   43     -1967.184881   -39.383478    0.003257  0.000682
   44     -1967.185025   -39.473599    0.003205  0.000675
   45     -1967.185078   -39.507012    0.003149  0.000757
   46     -1967.185116   -39.530892    0.003102  0.000636
   47     -1967.185162   -39.559376    0.003055  0.000664
   48     -1967.185193   -39.579049    0.003004  0.000683
   49     -1967.185217   -39.594308    0.002952  0.000614
   50     -1967.185167   -39.562848    0.002896  0.000602
   51     -1967.185294   -39.642716    0.002843  0.000594
   52     -1967.185245   -39.611372    0.002787  0.000572
   53     -1967.185371   -39.690597    0.002733  0.000555
   54     -1967.185407   -39.713298    0.002680  0.000583
   55     -1967.185427   -39.725635    0.002628  0.000550
   56     -1967.185455   -39.743316    0.002605  0.000686
   57     -1967.185485   -39.762253    0.002559  0.000607
   58     -1967.185523   -39.786160    0.002515  0.000571
   59     -1967.185524   -39.786625    0.002463  0.000683
   60     -1967.185589   -39.827267    0.002427  0.000794
   61     -1967.185606   -39.838302    0.002392  0.000664
   62     -1967.185624   -39.849721    0.002353  0.000478
   63     -1967.185637   -39.857889    0.002302  0.000504
   64     -1967.185667   -39.876769    0.002253  0.000504
   65     -1967.185727   -39.914169    0.002210  0.000641
   66     -1967.185718   -39.908741    0.002189  0.000446
   67     -1967.185747   -39.926823    0.002141  0.000523
   68     -1967.185769   -39.940362    0.002100  0.000528
   69     -1967.185789   -39.952710    0.002061  0.000608
   70     -1967.185870   -40.003626    0.002035  0.000817
   71     -1967.185828   -39.977567    0.002012  0.000472
   72     -1967.185827   -39.977023    0.001971  0.000413

                      ***********************HURRAY********************
                      ***            THE IRC HAS CONVERGED          ***
                      *************************************************


---------------------------------------------------------------
                       IRC PATH SUMMARY              
---------------------------------------------------------------
All gradients are in Eh/Bohr.

Step        E(Eh)      dE(kcal/mol)  max(|G|)   RMS(G) 
   1     -1967.185827   -39.977023    0.001971  0.000413
   2     -1967.185828   -39.977567    0.002012  0.000472
   3     -1967.185870   -40.003626    0.002035  0.000817
   4     -1967.185789   -39.952710    0.002061  0.000608
   5     -1967.185769   -39.940362    0.002100  0.000528
   6     -1967.185747   -39.926823    0.002141  0.000523
   7     -1967.185718   -39.908741    0.002189  0.000446
   8     -1967.185727   -39.914169    0.002210  0.000641
   9     -1967.185667   -39.876769    0.002253  0.000504
  10     -1967.185637   -39.857889    0.002302  0.000504
  11     -1967.185624   -39.849721    0.002353  0.000478
  12     -1967.185606   -39.838302    0.002392  0.000664
  13     -1967.185589   -39.827267    0.002427  0.000794
  14     -1967.185524   -39.786625    0.002463  0.000683
  15     -1967.185523   -39.786160    0.002515  0.000571
  16     -1967.185485   -39.762253    0.002559  0.000607
  17     -1967.185455   -39.743316    0.002605  0.000686
  18     -1967.185427   -39.725635    0.002628  0.000550
  19     -1967.185407   -39.713298    0.002680  0.000583
  20     -1967.185371   -39.690597    0.002733  0.000555
  21     -1967.185245   -39.611372    0.002787  0.000572
  22     -1967.185294   -39.642716    0.002843  0.000594
  23     -1967.185167   -39.562848    0.002896  0.000602
  24     -1967.185217   -39.594308    0.002952  0.000614
  25     -1967.185193   -39.579049    0.003004  0.000683
  26     -1967.185162   -39.559376    0.003055  0.000664
  27     -1967.185116   -39.530892    0.003102  0.000636
  28     -1967.185078   -39.507012    0.003149  0.000757
  29     -1967.185025   -39.473599    0.003205  0.000675
  30     -1967.184881   -39.383478    0.003257  0.000682
  31     -1967.184964   -39.435277    0.003282  0.000702
  32     -1967.184915   -39.404885    0.003338  0.000696
  33     -1967.184882   -39.383827    0.003390  0.000791
  34     -1967.184820   -39.344886    0.003443  0.000736
  35     -1967.184792   -39.327326    0.003497  0.000767
  36     -1967.184730   -39.288669    0.003550  0.000749
  37     -1967.184679   -39.256314    0.003605  0.000771
  38     -1967.184629   -39.225129    0.003657  0.000811
  39     -1967.184582   -39.195809    0.003710  0.000779
  40     -1967.184532   -39.164363    0.003735  0.000827
  41     -1967.184495   -39.141192    0.003788  0.000806
  42     -1967.184437   -39.104382    0.003827  0.001095
  43     -1967.184429   -39.099643    0.003868  0.001106
  44     -1967.184371   -39.063508    0.003907  0.001106
  45     -1967.184278   -39.004650    0.005538  0.001872
  46     -1967.184122   -38.907028    0.004147  0.000882
  47     -1967.183880   -38.755051    0.004352  0.000934
  48     -1967.183594   -38.575570    0.004544  0.000989
  49     -1967.183346   -38.420263    0.004729  0.001053
  50     -1967.183039   -38.227080    0.004909  0.001083
  51     -1967.182752   -38.047361    0.005091  0.001133
  52     -1967.182416   -37.836382    0.005276  0.001192
  53     -1967.182089   -37.631256    0.005467  0.001242
  54     -1967.181750   -37.418312    0.005669  0.001312
  55     -1967.181400   -37.198822    0.005876  0.001356
  56     -1967.181037   -36.970895    0.006081  0.001495
  57     -1967.180799   -36.822042    0.006206  0.001874
  58     -1967.180284   -36.498332    0.006505  0.001811
  59     -1967.178609   -35.447602    0.007524  0.001794
  60     -1967.176652   -34.219491    0.008341  0.001943
  61     -1967.174459   -32.843560    0.009384  0.002123
  62     -1967.172077   -31.348800    0.010293  0.002306
  63     -1967.169479   -29.718182    0.011530  0.002474
  64     -1967.166694   -27.970753    0.013013  0.002697
  65     -1967.163664   -26.069666    0.014997  0.002976
  66     -1967.160267   -23.937845    0.017255  0.003408
  67     -1967.156345   -21.476904    0.019615  0.004011
  68     -1967.151785   -18.615266    0.021519  0.004885
  69     -1967.146176   -15.095469    0.025081  0.005721
  70     -1967.139815   -11.103897    0.028442  0.006038
  71     -1967.133463   -7.118203    0.025990  0.005520
  72     -1967.128179   -3.802362    0.019874  0.004412
  73     -1967.124432   -1.450797    0.013548  0.003054
  74     -1967.122120    0.000000    0.000008  0.000004 <= TS
  75     -1967.123694   -0.987880    0.009347  0.001949
  76     -1967.125262   -1.971692    0.010633  0.002266
  77     -1967.125852   -2.342362    0.009561  0.002027
  78     -1967.126824   -2.951750    0.009004  0.001925
  79     -1967.127879   -3.613810    0.009124  0.001951
  80     -1967.128956   -4.289687    0.009018  0.001951
  81     -1967.130017   -4.955706    0.008720  0.001916
  82     -1967.131043   -5.599642    0.008250  0.001895
  83     -1967.132027   -6.216796    0.007772  0.001775
  84     -1967.132967   -6.806843    0.007140  0.001741
  85     -1967.133844   -7.356805    0.006597  0.001594
  86     -1967.134673   -7.877617    0.005964  0.001505
  87     -1967.135396   -8.330929    0.005465  0.001403
  88     -1967.136183   -8.824805    0.005304  0.001313
  89     -1967.136867   -9.254130    0.005093  0.001211
  90     -1967.137494   -9.647347    0.004860  0.001251
  91     -1967.138020   -9.977561    0.004589  0.001172
  92     -1967.138244   -10.118093    0.004476  0.001128
  93     -1967.138493   -10.274561    0.004343  0.000969
  94     -1967.138760   -10.441927    0.004194  0.000937
  95     -1967.138998   -10.591222    0.004041  0.000929
  96     -1967.139225   -10.734009    0.003895  0.000876
  97     -1967.139452   -10.875971    0.003749  0.000835
  98     -1967.139718   -11.043042    0.003608  0.000801
  99     -1967.139845   -11.122736    0.003467  0.000761
 100     -1967.140080   -11.270521    0.003330  0.000731
 101     -1967.140277   -11.393680    0.003197  0.000702
 102     -1967.140464   -11.511368    0.003070  0.000674
 103     -1967.140637   -11.619494    0.002943  0.000741
 104     -1967.140715   -11.668661    0.002891  0.000664
 105     -1967.140798   -11.720524    0.002835  0.000631
 106     -1967.140860   -11.759730    0.002776  0.000609
 107     -1967.140961   -11.823302    0.002717  0.000597
 108     -1967.141042   -11.873813    0.002660  0.000598
 109     -1967.141120   -11.922679    0.002603  0.000572
 110     -1967.141197   -11.971354    0.002547  0.000604
 111     -1967.141268   -12.015933    0.002493  0.000551
 112     -1967.141345   -12.064045    0.002437  0.000559
 113     -1967.141415   -12.107775    0.002382  0.000528
 114     -1967.141487   -12.152988    0.002325  0.000535
 115     -1967.141553   -12.194724    0.002273  0.000507
 116     -1967.141623   -12.238554    0.002219  0.000504
 117     -1967.141688   -12.279047    0.002162  0.000485
 118     -1967.141757   -12.322336    0.002107  0.000474
 119     -1967.141804   -12.352192    0.002052  0.000620
 120     -1967.141837   -12.372873    0.002037  0.000479
 121     -1967.141883   -12.401622    0.002011  0.000491
 122     -1967.141897   -12.410438    0.001987  0.000502
 123     -1967.141921   -12.425304    0.001963  0.000447

--------------------------------
SUGGESTED CITATIONS FOR THIS RUN
--------------------------------

Below you find a list of papers that are relevant to this ORCA run
We neither can nor want to force you to cite these papers, but we appreciate if you do
You receive ORCA, which is the product of decades of hard work by many enthusiastic individuals, for free
The only thing we kindly ask in return is that you cite our papers,
We deeply appreciate it, if you show your appreciation for ORCA by not just citing the generic ORCA reference.

Please note that relegating all ORCA citations to the supporting information does *not* help us.
SI sections are not indexed - citations you put there will not count into any citation statistics
But we need these citations in order to attract the funding resources that allow us to do what we are doing

Therefore, if you are a happy ORCA user, please consider citing a few of the papers listed below in the main body of your paper

In addition to the list printed below, the program has created the file orca.bibtex that contains the list in bibtex format
You can import this file easily into all common literature databanks and citation aid programs


List of essential papers. We consider these as the minimum necessary citations

  1. Neese, F.
     Software update: the ORCA program system, version 6.0
     WIRES Comput. Molec. Sci. 2025 15(1), e70019
     doi.org/10.1002/wcms.7019

List of papers to cite with high priority. The work reported in these papers was absolutely
necessary for this run to complete.
Our perspective: the developers of density functionals and basis sets usually get cited in chemistry papers
Good! But without the algorithms to do something with them, the functionals or basis sets would not do anything.
Hence, in our opinion, the algorithm design and method developments papers are equally worthy of getting cited

  1. Neese, F.
     An improvement of the resolution of the identity approximation for the formation of the Coulomb matrix
     J. Comp. Chem. 2003 24(14), 1740-1747
     doi.org/10.1002/jcc.10318
  2. Neese, F.; Wennmohs, F.; Hansen, A.; Becker, U.
     Efficient, approximate and parallel Hartree-Fock and hybrid DFT calculations. A 'chain-of-spheres' algorithm for the Hartree-Fock exchange
     Chem. Phys. 2009 356(1-3), 98-109
     doi.org/10.1016/j.chemphys.2008.10.036
  3. Grimme, S.; Antony, J.; Ehrlich, S.; Krieg, H.
     A consistent and accurate ab initio parametrization of density functional dispersion correction (DFT-D) for the 94 elements H-Pu
     J. Chem. Phys. 2010 132 , 154104
     doi.org/10.1063/1.3382344
  4. Grimme, S.; Ehrlich, S.; Goerigk, L.
     Effect of the damping function in dispersion corrected density functional theory
     J. Comput. Chem. 2011 32(7), 1456-1465
     doi.org/10.1002/jcc.21759
  5. Garcia-Rates, M.; Neese, F.
     Effect of the Solute Cavity on the Solvation Energy and its Derivatives within the Framework of the Gaussian Charge Scheme
     J. Comput. Chem. 2020 41 , 922-939
     doi.org/10.1002/jcc.26139
  6. Helmich-Paris, B.; de Souza, B.; Neese, F.; Izsák, R.
     An improved chain of spheres for exchange algorithm
     J. Chem. Phys. 2021 155(10), 104109
     doi.org/10.1063/5.0058766
  7. Neese, F.
     The SHARK Integral Generation and Digestion System
     J. Comp. Chem. 2022 44(3), 381
     doi.org/10.1002/jcc.26942

List of suggested additional citations. These are papers that are important in the 'surrounding' of 
of this run, or papers that preceded the highly important papers. If you like your results we are grateful for a citation.

  1. Izsak, R.; Neese, F.
     An overlap fitted chain of spheres exchange method
     J. Chem. Phys. 2011 135 , 144105
     doi.org/10.1063/1.3646921
  2. Izsak, R.; Hansen, A.; Neese, F.
     The resolution of identity and chain of spheres approximations for the LPNO-CCSD singles Fock term
     Molec. Phys. 2012 110 , 2413-2417
     doi.org/10.1080/00268976.2012.687466
  3. Neese, F.
     The ORCA program system
     WIRES Comput. Molec. Sci. 2012 2(1), 73-78
     doi.org/10.1002/wcms.81
  4. Izsak, R.; Neese, F.; Klopper, W.
     Robust fitting techniques in the chain of spheres approximation to the Fock exchange: The role of the complementary space
     J. Chem. Phys. 2013 139 , 
     doi.org/10.1063/1.4819264
  5. Neese, F.
     Software update: the ORCA program system, version 4.0
     WIRES Comput. Molec. Sci. 2018 8(1), 1-6
     doi.org/10.1002/wcms.1327
  6. Neese, F.; Wennmohs, F.; Becker, U.; Riplinger, C.
     The ORCA quantum chemistry program package
     J. Chem. Phys. 2020 152(22), 224108
     doi.org/10.1063/5.0004608
  7. Neese, F.
     Software update: The ORCA program system—Version 5.0
     WIRES Comput. Molec. Sci. 2022 12(1), e1606
     doi.org/10.1002/wcms.1606

List of optional additional citations

  1. Neese, F.
     Approximate second-order SCF convergence for spin unrestricted wavefunctions
     Chem. Phys. Lett. 2000 325(1-3), 93-98
     doi.org/10.1016/s0009-2614(00)00662-x

Timings for individual modules:

Sum of individual times          ...    14682.362 sec (= 244.706 min)
Startup calculation              ...     2191.454 sec (=  36.524 min)  14.9 %
SCF iterations                   ...     9877.409 sec (= 164.623 min)  67.3 %
Property calculations            ...        1.918 sec (=   0.032 min)   0.0 %
SCF Gradient evaluation          ...     2078.100 sec (=  34.635 min)  14.2 %
Numerical frequency calculation  ...      533.481 sec (=   8.891 min)   3.6 %
                             ****ORCA TERMINATED NORMALLY****
TOTAL RUN TIME: 0 days 4 hours 6 minutes 48 seconds 127 msec
