
                                 *****************
                                 * O   R   C   A *
                                 *****************

                                            #,                                       
                                            ###                                      
                                            ####                                     
                                            #####                                    
                                            ######                                   
                                           ########,                                 
                                     ,,################,,,,,                         
                               ,,#################################,,                 
                          ,,##########################################,,             
                       ,#########################################, ''#####,          
                    ,#############################################,,   '####,        
                  ,##################################################,,,,####,       
                ,###########''''           ''''###############################       
              ,#####''   ,,,,##########,,,,          '''####'''          '####       
            ,##' ,,,,###########################,,,                        '##       
           ' ,,###''''                  '''############,,,                           
         ,,##''                                '''############,,,,        ,,,,,,###''
      ,#''                                            '''#######################'''  
     '                                                          ''''####''''         
             ,#######,   #######,   ,#######,      ##                                
            ,#'     '#,  ##    ##  ,#'     '#,    #''#        ,####,    ,#,          
            ##       ##  ##   ,#'  ##            #'  '#       #'       ,# #          
            ##       ##  #######   ##           ,######,      #####,      #          
            '#,     ,#'  ##    ##  '#,     ,#' ,#      #,     #,   #      #          
             '#######'   ##     ##  '#######'  #'      '#     '####' #    #          



                #########################################################
                #                        -***-                          #
                #          Department of theory and spectroscopy        #
                #                                                       #
                #                      Frank Neese                      #
                #                                                       #
                #     Directorship, Architecture, Infrastructure        #
                #                    SHARK, DRIVERS                     #
                #        Core code/Algorithms in most modules           #
                #                                                       #
                #        Max Planck Institute fuer Kohlenforschung      #
                #                Kaiser Wilhelm Platz 1                 #
                #                 D-45470 Muelheim/Ruhr                 #
                #                      Germany                          #
                #                                                       #
                #                  All rights reserved                  #
                #                        -***-                          #
                #########################################################


                         Program Version 6.1.0-f.0  -   RELEASE   -


 With contributions from (in alphabetic order):
[Max-Planck-Institut fuer Kohlenforschung]                               
  Daniel Aravena         : Magnetic Suceptibility                        
  Michael Atanasov       : Ab Initio Ligand Field Theory (pilot matlab implementation)
  Alexander A. Auer      : GIAO ZORA, VPT2 properties, NMR spectrum      
  Ute Becker             : All parallelization in ORCA, NUMFREQ, NUMCALC 
  Giovanni Bistoni       : ED, misc. LED, open-shell LED, HFLD           
  Dmytro Bykov           : pre 5.0 version of the SCF Hessian            
  Marcos Casanova-Páez   : Triplet and SCS-CIS(D). UHF-(DLPNO)-IP/EA/STEOM-CCSD. UHF-CVS-IP/STEOM-CCSD   
  Vijay G. Chilkuri      : MRCI spin determinant printing, contributions to CSF-ICE 
  Pauline Colinet        : FMM embedding                                 
  Dipayan Datta          : RHF DLPNO-CCSD density                        
  Achintya Kumar Dutta   : EOM-CC, STEOM-CC                              
  Nicolas Foglia         : Exact transition moments, OPA infrastructure, MCD improvements    
  Dmitry Ganyushin       : Spin-Orbit,Spin-Spin,Magnetic field MRCI      
  Miquel Garcia-Rates    : C-PCM and meta-GGA Hessian, CCSD/C-PCM, Gaussian charge scheme 
  Tiago L. C. Gouveia    : GS-ROHF, GS-ROCIS                             
  Yang Guo               : DLPNO-NEVPT2, F12-NEVPT2, CIM, IAO-localization        
  Andreas Hansen         : Spin unrestricted coupled pair/coupled cluster methods 
  Ingolf Harden          : AUTO-CI MPn and infrastructure                
  Benjamin Helmich-Paris : MC-RPA, TRAH-(SCF,CASSCF), AVAS, COSX integrals, SCF dyn. polar., MC-PDFT, srDFT 
  Lee Huntington         : MR-EOM, pCC                                   
  Robert Izsak           : Overlap fitted RIJCOSX, COSX-SCS-MP3, EOM     
  Riya Kayal             : Wick's Theorem for AUTO-CI, AUTO-CI UHF-CCSDT 
  Emily Kempfer          : AUTO-CI RHF CISDT and CCSDT, approximate NEVPT4
  Christian Kollmar      : KDIIS, OOCD, Brueckner-CCSD(T), CCSD density, CASPT2, CASPT2-K, improved NEVPT2 
  Axel Koslowski         : Symmetry handling                             
  Simone Kossmann        : meta-GGA functionals, TD-DFT gradient, OOMP2, (MP2 Hessian; deprecated post 5.0) 
  Lucas Lang             : DCDCAS, Hyperfine gauge corrections, ICE-SOC+SSC
  Marvin Lechner         : AUTO-CI (C++ implementation), FIC-MRCC        
  Spencer Leger          : CASSCF response                               
  Dagmar Lenk            : GEPOL surface, SMD, ORCA-2-JSON               
  Dimitrios Liakos       : Extrapolation schemes; Compound Job, Property file
  Dimitrios Manganas     : Further ROCIS development; embedding schemes. LFT, Crystal Embedding 
  Dimitrios Pantazis     : SARC Basis sets                               
  Anastasios Papadopoulos: AUTO-CI, single reference methods and gradients 
  Taras Petrenko         : pre 6.0 DFT Hessian and TD-DFT gradient,  ECA, NRVS 
  Petra Pikulova         : Analytic Raman intensities                    
  Peter Pinski           : DLPNO-MP2, DLPNO-MP2 Gradient                 
  Shashank Vittal Rao    : ES-AILFT, MagRelax                            
  Christoph Reimann      : Effective Core Potentials                     
  Marius Retegan         : Local ZFS, SOC                                
  Christoph Riplinger    : Optimizer, TS searches, QM/MM, DLPNO-CCSD(T), (RO)-DLPNO pert. Triples 
  Michael Roemelt        : Original ROCIS implementation, recursive CI coupling coefficients
  Masaaki Saitow         : Open-shell DLPNO-CCSD energy and density      
  Barbara Sandhoefer     : DKH picture change effects                    
  Yorick L. A. Schmerwitz: GMF and freeze-and-release deltaSCF, NEB S-IDPP initial path                    
  Kantharuban Sivalingam : CASSCF convergence/infrastructure, NEVPT2, NEVPT3, NEVPT4(SD), FIC-MRCI and CEPA variants
  Bernardo de Souza      : ESD, SOC TD-DFT                               
  Georgi L. Stoychev     : AutoAux, RI-MP2 NMR, DLPNO-MP2 response, X2C  
  Van Anh Tran           : RI-MP2 g-tensors                              
  Willem Van den Heuvel  : Paramagnetic NMR                              
  Zikuan Wang            : NOTCH, Electric field optimization            
  Frank Wennmohs         : Technical directorship and infrastructure     
  Hang Xu                : AUTO-CI-Response properties                   
                                                                         
[FACCTs GmbH]                                                            
  Markus Bursch, Nicolas Foglia, Miquel Garcia-Rates, Ingolf Harden, Hagen Neugebauer, Anastasios Papadopoulos, 
  Christoph Riplinger, Bernardo de Souza, Georgi L. Stoychev                                                    
                                                                 
  APM, various basis sets, CI-OPT, improved COSX, DLPNO-Multilevel,           
  DOCKER, DRACO, updates on ESD, Fragmentator, GOAT, IRC, LR-CPCM, L-BFGS, MBIS, meta-GGA TD-DFT gradient, ML-optimized integration grids, 
  MM, NACMEs, nearIR, NEB, NEB-TS, NL-DFT gradient (VV10), 2- and 3-layer-ONIOM, interface openCOSMO-RS, QMMM,   
  Crystal-QMMM, RESP, rigid body optimization, SF, symmetry and pop. for TD-DFT, various functionals, SOLVATOR                                   
                                                                         
[Other institutions]                                                     
  V. Asgeirsson          : NEB                                           
  Christoph Bannwarth    : sTDA-DFT, sTD-DFT, PBEh-3c, B97-3c, D3        
  Giovanni Bistoni       : ETS/NOCV, ADLD/ADEX, COVALED                  
  Martin Brehm           : Molecular dynamics                            
  Ronald Cardenas        : ETS/NOCV                                      
  Martina Colucci        : COVALED                                       
  Sebastian Ehlert       : rSCAN, r2SCAN, r2SCAN-3c, D4, dhf basis sets  
  Marvin Friede          : D4 for Fr, Ra, Ac-Lr                          
  Lars Goerigk           : TD-DFT with DH, B97 family of functionals     
  Stefan Grimme          : VdW corrections, initial TS optimization, DFT functionals, gCP, sTDA/sTD-DF 
  Waldemar Hujo          : DFT-NL                                        
  H. Jonsson             : NEB                                           
  Holger Kruse           : gCP                                           
  Marcel Mueller         : wB97X-3c, vDZP basis set                      
  Hagen Neugebauer       : wr2SCAN, Native XTB                           
  Gianluca Regni         : ADLD/ADEX                                     
  Tobias Risthaus        : pre 6.0 range-separated hybrid DFT and stability analysis
  Lukas Wittmann         : regularized MP2, r2SCAN double-hybrids, wr2SCAN        
                                                                         
We gratefully acknowledge several colleagues who have allowed us to      
interface, adapt or use parts of their codes:                            
  Ed Valeev, F. Pavosevic, A. Kumar             : LibInt (2-el integral package), F12 methods 
  Garnet Chan, S. Sharma, J. Yang, R. Olivares  : DMRG                   
  Ulf Ekstrom                                   : XCFun DFT Library      
  Mihaly Kallay                                 : mrcc  (arbitrary order and MRCC methods)
  Frank Weinhold                                : gennbo (NPA and NBO analysis)           
  Simon Mueller                                 : openCOSMO-RS                            
  Christopher J. Cramer and Donald G. Truhlar   : smd solvation model                     
  S Lehtola, MJT Oliveira, MAL Marques          : LibXC Library                           
  Liviu Ungur et al                             : ANISO software                          


 Your calculation uses the libint2 library for the computation of 2-el integrals
 For citations please refer to: http://libint.valeyev.net

 Your ORCA version has been built with support for libXC version: 7.0.0
 For citations please refer to: https://libxc.gitlab.io

 This ORCA versions uses:
   CBLAS   interface :  Fast vector & matrix operations
   LAPACKE interface :  Fast linear algebra routines
   SCALAPACK package :  Parallel linear algebra routines
   Shared memory     :  Shared parallel matrices
   BLAS/LAPACK       :  OpenBLAS 0.3.29  USE64BITINT DYNAMIC_ARCH NO_AFFINITY Cooperlake SINGLE_THREADED
        Core in use  :  Cooperlake
   Copyright (c) 2011-2014, The OpenBLAS Project


  ***********************************
  * Starting time: Fri Oct 17 08:48:46 2025
  * Host name:     g06.hpc.nesi.org.nz
  * Process ID:    2117134
  * Working dir.:  /nesi/nobackup/nesi99999/geoffreyweal/ORCA_tutorial/Step2Bb_NEB/Step2B_4_Run_NEB_Calculation
  ***********************************

NOTE: MaxCore=2000 MB was set to SCF,MP2,MDCI,CIPSI,MRCI,RASCI and CIS
      => If you want to overwrite this, your respective input block should be placed after the MaxCore statement


***************************************
The coordinates will be read from file: reactant_opt_unconstrained.xyz
***************************************


Your calculation utilizes the atom-pairwise dispersion correction
with the Becke-Johnson damping scheme (D3BJ)


Your calculation utilizes a Nudged-Elastic-Band implementation
by V. Ásgeirsson, C. Riplinger & H. Jónsson
Please cite in your paper:
Ásgeirsson, V.; Birgisson, B. O.; Bjornsson, R.; Becker, U.; Neese, F.; Riplinger, R.;
Jónsson H. J. Chem. Theory Comput. 2021, 17, 4929-4945
   

Warning: RI is on but no J-basis has been assigned. Assigning Def2/J (nothing to worry about!)
================================================================================

----- Orbital basis set information -----
Your calculation utilizes the basis: def2-TZVP
   F. Weigend and R. Ahlrichs, Phys. Chem. Chem. Phys. 7, 3297 (2005).

----- AuxJ basis set information -----
Your calculation utilizes the auxiliary basis: def2/J
   H-Rn: F. Weigend, Phys. Chem. Chem. Phys. 8, 1057 (2006).
   Fr-Lr: K. Eichkorn, F. Weigend, O. Treutler, R. Ahlrichs; Theor. Chem. Acc. 97, 119 (1997).

================================================================================
                                        WARNINGS
                       Please study these warnings very carefully!
================================================================================


WARNING: Geometry Optimization
  ===> : Switching off AutoStart
         For restart on a previous wavefunction, please use MOREAD

================================================================================
                                       INPUT FILE
================================================================================
NAME = orca.inp
|  1> !B3LYP DEF2-TZVP D3BJ
|  2> !NEB-CI TightSCF defgrid2
|  3> %SCF
|  4>     MaxIter 2000       # Here setting MaxIter to a very high number. Intended for systems that require sometimes 1000 iterations before converging (very rare).
|  5>     DIISMaxEq 5        # Default value is 5. A value of 15-40 necessary for difficult systems.
|  6>     directresetfreq 15 # Default value is 15. A value of 1 (very expensive) is sometimes required. A value between 1 and 15 may be more cost-effective.
|  7> END
|  8> %CPCM EPSILON 6.02 REFRAC 1.3723 END
|  9> %PAL NPROCS 32 END
| 10> %maxcore 2000 # This indicates you want ORCA to use only 2GB per core maximum, so ORCA will use only 2GB*32=64GB of memory in total.
| 11> %NEB
| 12>     NEB_END_XYZFILE "product_opt.xyz"
| 13>     Nimages 100
| 14>     Interpolation IDPP
| 15>     Opt_Method LBFGS
| 16> END
| 17> * XYZfile 1 1 reactant_opt_unconstrained.xyz
| 18> 
| 19>                          ****END OF INPUT****
================================================================================


--------------------------------------------------------------------------------
                        Nudged Elastic Band Calculation
--------------------------------------------------------------------------------

Number of images (incl. end points)     ....  102
Number of intermediate images           ....  100
Number of optimized images              ....  100
Optimization of end points before NEB   ....  NO
Use existing gbw files for MO input     ....  NO
Number of atoms                         ....  18
Number of (active) degrees of freedom   ....  54
Constrained atoms                       ....  None

-----------------------------------------
  REACTANT (ANGSTROEM)
-----------------------------------------
C     -2.981170     1.807894     1.607572 
C     -1.885423     2.661113     1.501598 
C     -0.724414     2.408079     2.225371 
C     -0.669812     1.274888     3.053843 
C     -1.770486     0.428418     3.166717 
C     -2.929978     0.699342     2.445705 
H     -3.878863     2.014510     1.039025 
H     -3.785164     0.041244     2.527983 
H     -1.935668     3.530878     0.857786 
H      0.258358     1.023159     3.560827 
H     -1.713010    -0.448205     3.798923 
C      0.423225     3.383828     2.237078 
N      0.320522     4.230126     3.468140 
H     -0.299230     5.017694     3.293941 
H      1.225578     4.623687     3.709501 
H      0.420399     4.008693     1.343659 
H      1.373817     2.854811     2.288605 
Cu    -0.536114     3.077338     4.860404 

-----------------------------------------
  PRODUCT (ANGSTROEM)
-----------------------------------------
C     -2.988620     1.819329     1.605387 
C     -1.900138     2.666334     1.504382 
C     -0.727727     2.400106     2.235605 
C     -0.667116     1.266306     3.067942 
C     -1.760024     0.429263     3.163972 
C     -2.919247     0.701852     2.432981 
H     -3.889160     2.025652     1.043314 
H     -3.769756     0.037331     2.512291 
H     -1.939782     3.536898     0.862308 
H      0.225406     1.036279     3.634672 
H     -1.717588    -0.440597     3.805218 
C      0.352256     3.327667     2.083026 
N      1.528708     3.287384     2.748929 
H      1.679487     2.616131     3.494728 
H      2.065013     4.145101     2.833067 
H      0.169645     4.240862     1.528906 
H      1.767841     2.039377    -0.537746 
Cu     1.913260     2.499184     0.894056 



----------------------
NEB settings
----------------------
Method type                             ....  climbing image
Threshold for climbing image            ....  2.00e-02 Eh/Bohr 
Free endpoints                          ....  off 
Tangent type                            ....  improved 
Number of intermediate images           ....  100 
Number of images free to move           ....  100 
Spring type for image distribution      ....  distance between adjacent images 
Spring constant                         ....  energy weighted (0.0100 -to- 0.1000) Eh/Bohr^2 
Spring force perp. to the path          ....  none 
Generation of initial path              ....  image dependent pair potential 
Initial path via TS guess               ....  off 

Minimization of RMSD: Rotation          ....  always 
Minimization of RMSD: Translation type  ....  centroid 
Center fixed to origin                  ....  true 
Remove external force                   ....  true 

Reparametrization of the path           ....  off 
Convergence thresholds:
Convergence monitored for               ....  all images
Scaling factor                          ....  10.00

Convergence parameters for regular images:
               Max(|Fp|)                ....  5.00e-03 Eh/Bohr
               RMS(Fp)                  ....  2.50e-03 Eh/Bohr

Convergence parameters for climbing image:
               Max(|F|)                 ....  5.00e-04 Eh/Bohr
               RMS(F)                   ....  2.50e-04 Eh/Bohr
Optimization method:
Method                                  ....  L-BFGS
Max. iterations                         ....  500 
Step size                               ....  1.00 
Maximum allowed step size               ....  0.10 Bohr

LBFGS parameters: 
               Memory                   ....  20 
               Initial step size        ....  0.0010 
               Estimate curvature       ....  YES 
               Reset on maxmove         ....  YES 
               Reparam. on reset        ....  NO 
Generation of  the initial path:
Minimize RMSD between reactant and product configurations     .... done
       RMSD before minimization         ....  1.7319 Bohr
       RMSD after minimization          ....  1.3234 Bohr
Performing linear interpolation         ....  done
Generating initial path 1 out of 129 -> Success!
Displacement along initial path:             12.0441 Bohr
Writing initial trajectory to file      ....  orca_initial_path_trj.xyz



----------------------
NEB OPTIMIZATION      
----------------------

Following output files will be written:
Energy profile during opt. written to    ....  orca.interp
Optimization log-file                    ....  orca.NEB.log
Current trajectory will be written to    ....  orca_MEP_trj.xyz
       and to allxyz file                ....  orca_MEP.allxyz
       and individual images to xyz file ....  orca_im{NIm}.xyz
Trajectory history will be written to    ....  orca_MEP_ALL_trj.xyz
Converged CI will be written to          ....  orca_NEB-CI_converged.xyz

Single point energy and gradient calculation of reactant and
product configurations (have to be performed only once)
Properties of fixed NEB end points:
               Reactant:
                         E               ....  -1967.196363 Eh
                         RMS(F)          ....      0.000007 Eh/Bohr
                         MAX(|F|)        ....      0.000026 Eh/Bohr
               Product:
                         E               ....  -1967.143638 Eh
                         RMS(F)          ....      0.000159 Eh/Bohr
                         MAX(|F|)        ....      0.000520 Eh/Bohr



Starting iterations:

Optim.  Iteration  HEI  E(HEI)-E(0)  max(|Fp|)   RMS(Fp)    dS
Switch-on CI threshold               0.020000 
   LBFGS     0      49   0.142014    0.068325   0.010971  12.0441       
   LBFGS     1      51   0.135668    0.068736   0.009296  12.0108       
   LBFGS     2      52   0.131150    0.070090   0.008607  12.0083       
   LBFGS     3      53   0.127303    0.069870   0.007952  12.0082       
   LBFGS     4      53   0.123769    0.069072   0.007492  12.0276       
   LBFGS     5      54   0.120280    0.068128   0.006905  12.0492       
   LBFGS     6      54   0.116873    0.066905   0.006341  12.0879       
   LBFGS     7      55   0.113358    0.065000   0.005799  12.1341       
   LBFGS     8      55   0.110044    0.062326   0.005262  12.1891       
   LBFGS     9      55   0.106641    0.058301   0.004741  12.2539       
   LBFGS    10      56   0.103151    0.053352   0.004348  12.3240       
   LBFGS    11      56   0.099947    0.047776   0.003901  12.4121       
   LBFGS    12      56   0.096702    0.041718   0.003354  12.5154       
   LBFGS    13      57   0.093609    0.034790   0.003161  12.6171       
   LBFGS    14      57   0.090801    0.028309   0.002773  12.7513       
   LBFGS    15      57   0.088930    0.023192   0.004146  12.8708       
   LBFGS    16      58   0.087181    0.030751   0.003483  13.0162       
   LBFGS    17      58   0.085571    0.010901   0.002811  13.2249       

Image 58 will be converted to a climbing image in the next iteration (max(|Fp|) < 0.0200) 

Optim.  Iteration  CI   E(CI)-E(0)   max(|Fp|)   RMS(Fp)    dS     max(|FCI|)   RMS(FCI)
Convergence thresholds               0.005000   0.002500            0.000500    0.000250 
   LBFGS    18      58   0.085048    0.010314   0.001598  13.2441    0.006744    0.002442       
   LBFGS    19      58   0.084777    0.010010   0.001566  13.2683    0.006512    0.002383       
   LBFGS    20      58   0.082872    0.009418   0.001826  13.5472    0.005796    0.002614       
   LBFGS    21      58   0.082639    0.006639   0.001269  13.5663    0.005667    0.001910       
   LBFGS    22      58   0.082480    0.006610   0.001240  13.5879    0.005493    0.001835       
   LBFGS    23      58   0.080817    0.013388   0.001232  13.9085    0.004576    0.001476       
   LBFGS    24      58   0.080688    0.017703   0.001234  13.9351    0.003688    0.001359       
   LBFGS    25      58   0.080573    0.013474   0.001126  13.9526    0.003530    0.001392       
   LBFGS    26      58   0.079642    0.029743   0.001556  14.2696    0.005023    0.001346       
   LBFGS    27      58   0.079489    0.015095   0.001100  14.2408    0.003811    0.001168       
   LBFGS    28      58   0.079371    0.012187   0.000867  14.2440    0.003554    0.001053       
   LBFGS    29      58   0.079113    0.013941   0.001050  14.3217    0.003307    0.001003       
   LBFGS    30      58   0.078655    0.025975   0.001446  14.5987    0.005023    0.001304       
   LBFGS    31      58   0.078156    0.034825   0.001604  15.0310    0.007992    0.001803       
   LBFGS    32      58   0.077891    0.034600   0.001740  14.9345    0.003809    0.001190       
   LBFGS    33      58   0.077755    0.020495   0.001178  14.8724    0.002708    0.000870       
   LBFGS    34      58   0.077632    0.011775   0.000796  14.8500    0.003191    0.000863       
   LBFGS    35      58   0.077549    0.013034   0.000960  14.8317    0.002539    0.000773       
   LBFGS    36      58   0.077490    0.007987   0.000716  14.8269    0.002477    0.000723       
   LBFGS    37      58   0.077277    0.013616   0.000836  14.9371    0.002589    0.000815       
   LBFGS    38      58   0.077111    0.019136   0.001150  15.0568    0.003057    0.000889       
   LBFGS    39      58   0.076825    0.023872   0.001396  15.2726    0.003396    0.000917       
   LBFGS    40      58   0.076403    0.026401   0.001585  15.6476    0.002815    0.000792       
   LBFGS    41      58   0.076409    0.022032   0.001066  15.5765    0.001994    0.000645       
   LBFGS    42      58   0.076355    0.019115   0.000776  15.5344    0.001801    0.000573       
   LBFGS    43      58   0.076340    0.005877   0.000466  15.4642    0.001406    0.000443       
   LBFGS    44      58   0.076291    0.008688   0.000595  15.4587    0.001470    0.000430       
   LBFGS    45      58   0.076245    0.006593   0.000493  15.4569    0.001487    0.000425       
   LBFGS    46      58   0.076093    0.012782   0.000721  15.6177    0.001495    0.000458       
   LBFGS    47      58   0.076023    0.016218   0.000890  15.6931    0.001444    0.000422       
   LBFGS    48      58   0.075963    0.015061   0.000838  15.7341    0.001301    0.000385       
   LBFGS    49      58   0.075709    0.010629   0.000688  16.1162    0.000961    0.000325       
   LBFGS    50      58   0.075671    0.012632   0.000623  16.0721    0.000925    0.000303       
   LBFGS    51      58   0.075741    0.006894   0.000442  16.0432    0.000925    0.000302       
   LBFGS    52      58   0.075671    0.005714   0.000375  15.9826    0.000968    0.000291       
   LBFGS    53      58   0.075647    0.008700   0.000471  15.9733    0.000974    0.000286       
   LBFGS    54      58   0.075598    0.011442   0.000486  16.0257    0.000947    0.000281       
   LBFGS    55      58   0.075508    0.021016   0.000991  16.3046    0.000897    0.000315       
   LBFGS    56      58   0.075501    0.007583   0.000417  16.2784    0.000784    0.000243       
   LBFGS    57      58   0.075490    0.006917   0.000336  16.2637    0.000785    0.000242       
   LBFGS    58      58   0.075477    0.008057   0.000461  16.1921    0.000732    0.000272       
   LBFGS    59      58   0.075453    0.007615   0.000380  16.1888    0.000731    0.000231       
   LBFGS    60      58   0.075426    0.006153   0.000360  16.2459    0.000686    0.000224       
   LBFGS    61      58   0.075394    0.007869   0.000451  16.3491    0.000671    0.000214       
   LBFGS    62      58   0.075377    0.005943   0.000403  16.3784    0.000656    0.000212       
   LBFGS    63      58   0.075315    0.008290   0.000459  16.5518    0.000692    0.000218       
   LBFGS    64      58   0.075249    0.022910   0.001158  16.8917    0.000696    0.000268       
   LBFGS    65      58   0.075260    0.006589   0.000422  16.7616    0.000604    0.000189       
   LBFGS    66      58   0.075241    0.004199   0.000285  16.8193    0.000522    0.000174       
   LBFGS    67      58   0.075208    0.007151   0.000398  16.9724    0.000467    0.000171       
   LBFGS    68      58   0.075162    0.011696   0.000526  17.1338    0.000561    0.000171       
   LBFGS    69      58   0.075095    0.018055   0.001024  17.6585    0.000575    0.000167       
   LBFGS    70      58   0.075125    0.008666   0.000373  17.5484    0.000450    0.000143       
   LBFGS    71      58   0.075095    0.005434   0.000383  17.4426    0.000320    0.000130       
   LBFGS    72      58   0.075082    0.005067   0.000385  17.4573    0.000404    0.000130       
   LBFGS    73      58   0.075036    0.015481   0.000813  17.8265    0.000624    0.000146       
   LBFGS    74      58   0.075004    0.012054   0.000508  18.3290    0.000640    0.000149       
   LBFGS    75      58   0.074999    0.007632   0.000351  18.3695    0.000452    0.000128       
   LBFGS    76      58   0.074986    0.006006   0.000406  18.4844    0.000580    0.000152       
   LBFGS    77      58   0.074977    0.015101   0.000825  18.5716    0.000661    0.000177       
   LBFGS    78      58   0.074976    0.006248   0.000333  18.5254    0.000608    0.000155       
   LBFGS    79      58   0.074975    0.005924   0.000283  18.5078    0.000556    0.000143       
   LBFGS    80      58   0.074966    0.007035   0.000428  18.4900    0.000447    0.000137       
   LBFGS    81      58   0.074956    0.005764   0.000378  18.5069    0.000655    0.000150       
   LBFGS    82      58   0.074941    0.014052   0.000773  18.6416    0.000835    0.000174       
   LBFGS    83      58   0.074953    0.004632   0.000358  18.6425    0.000766    0.000163       
   LBFGS    84      58   0.074928    0.005744   0.000362  18.7181    0.000666    0.000151       
   LBFGS    85      58   0.074918    0.006608   0.000412  18.8207    0.000497    0.000135       
   LBFGS    86      58   0.074884    0.007189   0.000478  19.1383    0.000475    0.000140       
   LBFGS    87      58   0.074874    0.006158   0.000451  19.6253    0.000546    0.000176       
   LBFGS    88      58   0.074866    0.005189   0.000338  19.7781    0.000512    0.000168       
   LBFGS    89      58   0.074842    0.007558   0.000490  20.2780    0.000413    0.000129       
   LBFGS    90      58   0.074823    0.010855   0.000624  20.6865    0.000454    0.000133       
   LBFGS    91      58   0.074813    0.006063   0.000371  20.6445    0.000452    0.000132       
   LBFGS    92      58   0.074810    0.006798   0.000411  20.7512    0.000458    0.000133       
   LBFGS    93      58   0.074794    0.007577   0.000486  20.9182    0.000461    0.000130       
   LBFGS    94      58   0.074766    0.020959   0.001212  21.3381    0.000441    0.000124       
   LBFGS    95      58   0.074785    0.008377   0.000499  21.3966    0.000444    0.000120       
   LBFGS    96      58   0.074755    0.008005   0.000310  21.4854    0.000440    0.000118       
   LBFGS    97      58   0.074744    0.007012   0.000416  21.5970    0.000431    0.000118       
   LBFGS    98      58   0.074725    0.008298   0.000435  21.8605    0.000405    0.000118       
   LBFGS    99      58   0.074707    0.024443   0.001214  22.3333    0.000358    0.000114       
   LBFGS   100      58   0.074714    0.007441   0.000433  22.3501    0.000357    0.000115       
   LBFGS   101      58   0.074699    0.003845   0.000241  22.4891    0.000345    0.000114       

                                .--------------------.
          ----------------------| CI-NEB convergence |-------------------------
          Item                value                   Tolerance       Converged
          ---------------------------------------------------------------------
          RMS(Fp)             0.0002409290            0.0025000000      YES
          MAX(|Fp|)           0.0038453599            0.0050000000      YES
          RMS(FCI)            0.0001136513            0.0002500000      YES
          MAX(|FCI|)          0.0003447134            0.0005000000      YES
          ---------------------------------------------------------------------

The elastic band and climbing image have converged successfully to a MEP in 101 iterations!


                    *********************H U R R A Y*********************
                    ***        THE NEB OPTIMIZATION HAS CONVERGED     ***
                    *****************************************************



---------------------------------------------------------------
                         PATH SUMMARY              
---------------------------------------------------------------
All forces in Eh/Bohr.

Image Dist.(Ang.)    E(Eh)   dE(kcal/mol)  max(|Fp|)  RMS(Fp)
  0     0.000   -1967.19636      0.00       0.00002   0.00001
  1     0.048   -1967.19634      0.01       0.00003   0.00001
  2     0.098   -1967.19634      0.02       0.00004   0.00001
  3     0.148   -1967.19631      0.03       0.00002   0.00001
  4     0.197   -1967.19626      0.06       0.00002   0.00001
  5     0.244   -1967.19624      0.08       0.00003   0.00001
  6     0.290   -1967.19622      0.09       0.00005   0.00003
  7     0.335   -1967.19619      0.11       0.00009   0.00004
  8     0.380   -1967.19610      0.16       0.00012   0.00004
  9     0.425   -1967.19603      0.21       0.00014   0.00005
 10     0.471   -1967.19596      0.25       0.00014   0.00004
 11     0.518   -1967.19592      0.28       0.00010   0.00003
 12     0.567   -1967.19582      0.34       0.00007   0.00003
 13     0.616   -1967.19575      0.39       0.00006   0.00002
 14     0.663   -1967.19568      0.43       0.00010   0.00003
 15     0.709   -1967.19562      0.47       0.00018   0.00005
 16     0.756   -1967.19555      0.51       0.00019   0.00007
 17     0.806   -1967.19547      0.56       0.00015   0.00007
 18     0.861   -1967.19541      0.60       0.00014   0.00006
 19     0.923   -1967.19533      0.65       0.00013   0.00005
 20     0.990   -1967.19523      0.71       0.00022   0.00005
 21     1.059   -1967.19510      0.79       0.00021   0.00005
 22     1.132   -1967.19500      0.85       0.00010   0.00004
 23     1.204   -1967.19489      0.92       0.00008   0.00003
 24     1.275   -1967.19473      1.03       0.00016   0.00005
 25     1.346   -1967.19458      1.12       0.00014   0.00004
 26     1.416   -1967.19446      1.20       0.00004   0.00001
 27     1.485   -1967.19427      1.32       0.00007   0.00002
 28     1.554   -1967.19414      1.39       0.00011   0.00003
 29     1.626   -1967.19393      1.53       0.00008   0.00002
 30     1.701   -1967.19375      1.64       0.00006   0.00002
 31     1.777   -1967.19359      1.74       0.00017   0.00005
 32     1.857   -1967.19340      1.86       0.00028   0.00007
 33     1.941   -1967.19320      1.98       0.00032   0.00007
 34     2.030   -1967.19304      2.08       0.00026   0.00006
 35     2.125   -1967.19286      2.20       0.00016   0.00004
 36     2.227   -1967.19266      2.32       0.00010   0.00003
 37     2.335   -1967.19241      2.48       0.00010   0.00003
 38     2.453   -1967.19217      2.63       0.00012   0.00003
 39     2.584   -1967.19192      2.79       0.00011   0.00003
 40     2.733   -1967.19163      2.97       0.00010   0.00004
 41     2.901   -1967.19130      3.18       0.00011   0.00004
 42     3.081   -1967.19099      3.37       0.00010   0.00004
 43     3.271   -1967.19072      3.54       0.00010   0.00004
 44     3.467   -1967.19038      3.76       0.00018   0.00007
 45     3.685   -1967.18988      4.07       0.00024   0.00007
 46     3.918   -1967.18928      4.45       0.00037   0.00008
 47     4.193   -1967.18840      5.00       0.00092   0.00019
 48     4.540   -1967.18743      5.61       0.00128   0.00034
 49     4.909   -1967.18693      5.92       0.00115   0.00029
 50     5.223   -1967.18442      7.50       0.00203   0.00066
 51     5.643   -1967.17602     12.77       0.00207   0.00051
 52     6.037   -1967.16077     22.34       0.00385   0.00130
 53     6.296   -1967.14194     34.15       0.00285   0.00098
 54     6.397   -1967.13355     39.42       0.00113   0.00050
 55     6.485   -1967.12765     43.12       0.00063   0.00018
 56     6.569   -1967.12392     45.46       0.00041   0.00014
 57     6.646   -1967.12215     46.57       0.00034   0.00012
 58     6.718   -1967.12166     46.87       0.00034   0.00011 <= CI
 59     6.812   -1967.12234     46.45       0.00034   0.00011
 60     6.906   -1967.12396     45.43       0.00034   0.00011
 61     7.011   -1967.12633     43.94       0.00043   0.00011
 62     7.140   -1967.12942     42.00       0.00061   0.00017
 63     7.295   -1967.13278     39.90       0.00053   0.00018
 64     7.472   -1967.13567     38.08       0.00182   0.00042
 65     7.679   -1967.13811     36.55       0.00133   0.00045
 66     7.938   -1967.13996     35.39       0.00218   0.00054
 67     8.181   -1967.14059     35.00       0.00153   0.00052
 68     8.538   -1967.14071     34.92       0.00154   0.00046
 69     8.854   -1967.14146     34.45       0.00148   0.00043
 70     9.063   -1967.14191     34.17       0.00108   0.00034
 71     9.373   -1967.14240     33.86       0.00055   0.00022
 72     9.591   -1967.14280     33.61       0.00076   0.00019
 73     9.802   -1967.14254     33.78       0.00039   0.00011
 74     9.951   -1967.14217     34.01       0.00026   0.00011
 75    10.089   -1967.14177     34.26       0.00079   0.00021
 76    10.250   -1967.14147     34.45       0.00058   0.00024
 77    10.355   -1967.14141     34.48       0.00056   0.00023
 78    10.397   -1967.14153     34.41       0.00064   0.00016
 79    10.480   -1967.14175     34.27       0.00044   0.00009
 80    10.590   -1967.14203     34.09       0.00032   0.00007
 81    10.699   -1967.14229     33.93       0.00024   0.00005
 82    10.794   -1967.14250     33.80       0.00019   0.00005
 83    10.873   -1967.14265     33.70       0.00016   0.00004
 84    10.940   -1967.14278     33.62       0.00013   0.00004
 85    11.001   -1967.14289     33.56       0.00010   0.00004
 86    11.061   -1967.14299     33.49       0.00008   0.00003
 87    11.116   -1967.14307     33.44       0.00009   0.00003
 88    11.173   -1967.14315     33.39       0.00011   0.00004
 89    11.229   -1967.14323     33.34       0.00008   0.00003
 90    11.281   -1967.14326     33.32       0.00008   0.00003
 91    11.333   -1967.14335     33.26       0.00008   0.00003
 92    11.388   -1967.14341     33.23       0.00008   0.00003
 93    11.444   -1967.14341     33.23       0.00007   0.00003
 94    11.501   -1967.14346     33.20       0.00007   0.00002
 95    11.560   -1967.14351     33.17       0.00006   0.00002
 96    11.619   -1967.14359     33.12       0.00007   0.00003
 97    11.677   -1967.14365     33.08       0.00005   0.00002
 98    11.734   -1967.14362     33.10       0.00005   0.00002
 99    11.791   -1967.14363     33.09       0.00007   0.00003
100    11.846   -1967.14363     33.09       0.00005   0.00002
101    11.901   -1967.14364     33.09       0.00048   0.00015

Straight line distance between images along the path:
        D( 0- 1) =   0.0479 Ang.
        D( 1- 2) =   0.0497 Ang.
        D( 2- 3) =   0.0499 Ang.
        D( 3- 4) =   0.0491 Ang.
        D( 4- 5) =   0.0476 Ang.
        D( 5- 6) =   0.0454 Ang.
        D( 6- 7) =   0.0451 Ang.
        D( 7- 8) =   0.0450 Ang.
        D( 8- 9) =   0.0452 Ang.
        D( 9-10) =   0.0460 Ang.
        D(10-11) =   0.0474 Ang.
        D(11-12) =   0.0485 Ang.
        D(12-13) =   0.0486 Ang.
        D(13-14) =   0.0475 Ang.
        D(14-15) =   0.0461 Ang.
        D(15-16) =   0.0463 Ang.
        D(16-17) =   0.0501 Ang.
        D(17-18) =   0.0556 Ang.
        D(18-19) =   0.0620 Ang.
        D(19-20) =   0.0663 Ang.
        D(20-21) =   0.0699 Ang.
        D(21-22) =   0.0723 Ang.
        D(22-23) =   0.0718 Ang.
        D(23-24) =   0.0714 Ang.
        D(24-25) =   0.0714 Ang.
        D(25-26) =   0.0700 Ang.
        D(26-27) =   0.0686 Ang.
        D(27-28) =   0.0692 Ang.
        D(28-29) =   0.0715 Ang.
        D(29-30) =   0.0749 Ang.
        D(30-31) =   0.0768 Ang.
        D(31-32) =   0.0798 Ang.
        D(32-33) =   0.0836 Ang.
        D(33-34) =   0.0891 Ang.
        D(34-35) =   0.0955 Ang.
        D(35-36) =   0.1016 Ang.
        D(36-37) =   0.1082 Ang.
        D(37-38) =   0.1175 Ang.
        D(38-39) =   0.1317 Ang.
        D(39-40) =   0.1491 Ang.
        D(40-41) =   0.1671 Ang.
        D(41-42) =   0.1809 Ang.
        D(42-43) =   0.1891 Ang.
        D(43-44) =   0.1964 Ang.
        D(44-45) =   0.2175 Ang.
        D(45-46) =   0.2331 Ang.
        D(46-47) =   0.2757 Ang.
        D(47-48) =   0.3469 Ang.
        D(48-49) =   0.3687 Ang.
        D(49-50) =   0.3141 Ang.
        D(50-51) =   0.4202 Ang.
        D(51-52) =   0.3942 Ang.
        D(52-53) =   0.2581 Ang.
        D(53-54) =   0.1010 Ang.
        D(54-55) =   0.0888 Ang.
        D(55-56) =   0.0840 Ang.
        D(56-57) =   0.0766 Ang.
        D(57-58) =   0.0718 Ang.
        D(58-59) =   0.0944 Ang.
        D(59-60) =   0.0939 Ang.
        D(60-61) =   0.1050 Ang.
        D(61-62) =   0.1290 Ang.
        D(62-63) =   0.1553 Ang.
        D(63-64) =   0.1768 Ang.
        D(64-65) =   0.2069 Ang.
        D(65-66) =   0.2586 Ang.
        D(66-67) =   0.2433 Ang.
        D(67-68) =   0.3572 Ang.
        D(68-69) =   0.3154 Ang.
        D(69-70) =   0.2090 Ang.
        D(70-71) =   0.3102 Ang.
        D(71-72) =   0.2182 Ang.
        D(72-73) =   0.2104 Ang.
        D(73-74) =   0.1493 Ang.
        D(74-75) =   0.1378 Ang.
        D(75-76) =   0.1611 Ang.
        D(76-77) =   0.1056 Ang.
        D(77-78) =   0.0420 Ang.
        D(78-79) =   0.0827 Ang.
        D(79-80) =   0.1098 Ang.
        D(80-81) =   0.1095 Ang.
        D(81-82) =   0.0944 Ang.
        D(82-83) =   0.0795 Ang.
        D(83-84) =   0.0667 Ang.
        D(84-85) =   0.0609 Ang.
        D(85-86) =   0.0598 Ang.
        D(86-87) =   0.0557 Ang.
        D(87-88) =   0.0563 Ang.
        D(88-89) =   0.0561 Ang.
        D(89-90) =   0.0522 Ang.
        D(90-91) =   0.0522 Ang.
        D(91-92) =   0.0543 Ang.
        D(92-93) =   0.0560 Ang.
        D(93-94) =   0.0576 Ang.
        D(94-95) =   0.0586 Ang.
        D(95-96) =   0.0591 Ang.
        D(96-97) =   0.0581 Ang.
        D(97-98) =   0.0567 Ang.
        D(98-99) =   0.0572 Ang.
        D(99-100) =   0.0550 Ang.
        D(100-101) =   0.0546 Ang.

---------------------------------------------------------------
               INFORMATION ABOUT SADDLE POINT     
---------------------------------------------------------------

Climbing image                            ....  58 
Energy                                    ....  -1967.12166345 Eh
Max. abs. force                           ....  3.4471e-04 Eh/Bohr

-----------------------------------------
  SADDLE POINT (ANGSTROEM)
-----------------------------------------
C     -1.720784    -0.734672    -1.397304 
C     -0.668840     0.167137    -1.286018 
C      0.170988     0.128602    -0.172173 
C     -0.030567    -0.842579     0.811903 
C     -1.075688    -1.746038     0.693533 
C     -1.928295    -1.688209    -0.407406 
H     -2.378970    -0.687656    -2.255032 
H     -2.748108    -2.389525    -0.493753 
H     -0.509149     0.913290    -2.054451 
H      0.640037    -0.904400     1.661357 
H     -1.224576    -2.499533     1.455948 
C      1.205053     1.175947    -0.041867 
N      1.281724     1.880385     1.181311 
H      0.662292     1.575811     1.920142 
H      1.378406     2.884600     1.113806 
H      1.322258     1.813086    -0.907206 
H      2.615466     0.205810    -0.597829 
Cu     3.008753     0.747944     0.775039 

-----------------------------------------
  FORCES (Eh/Bohr)
-----------------------------------------
C      0.000049    -0.000068    -0.000045 
C     -0.000074     0.000042    -0.000016 
C     -0.000112     0.000105     0.000010 
C     -0.000120     0.000162     0.000052 
C     -0.000024     0.000075     0.000023 
C      0.000109    -0.000083    -0.000070 
H      0.000132    -0.000162    -0.000101 
H      0.000162    -0.000141    -0.000104 
H     -0.000064     0.000043    -0.000011 
H     -0.000158     0.000204     0.000069 
H     -0.000019     0.000083     0.000016 
C     -0.000110     0.000072     0.000008 
N      0.000117    -0.000048     0.000023 
H      0.000133    -0.000035     0.000032 
H      0.000345    -0.000112     0.000217 
H     -0.000068     0.000112     0.000074 
H     -0.000203    -0.000063     0.000029 
Cu    -0.000093    -0.000188    -0.000208 

-----------------------------------------
  UNIT TANGENT
-----------------------------------------
C      0.009928    -0.002863    -0.003618 
C      0.004973    -0.000039     0.001748 
C     -0.031327     0.027073     0.040290 
C     -0.017379     0.006410     0.024758 
C      0.002991    -0.006574     0.002378 
C      0.005275    -0.000253    -0.001383 
H      0.010142    -0.002859    -0.003700 
H      0.004172     0.000962    -0.003183 
H      0.002981     0.003771     0.005690 
H     -0.011329     0.003565     0.017469 
H      0.004066    -0.011734    -0.004227 
C     -0.258849     0.184217     0.131677 
N     -0.177346     0.088702     0.012241 
H     -0.016110     0.042256     0.120789 
H      0.040929     0.069099     0.086028 
H      0.019278     0.023818     0.051420 
H      0.668866    -0.411982    -0.201411 
Cu    -0.261260    -0.013568    -0.276967 
 => Unit tangent is an approximation to the TS mode at the saddle point
----------
STATISTICS
----------

For the individual parts of the NEB, NEB-CI or NEB-TS run:

Number of iterations:
     NEB                               ... 102  100.0%
Number of SCF / gradient calculations:
     NEB                               ... 12002  100.0%

----------
 TIMINGS
----------

For the individual parts of the NEB, NEB-CI or NEB-TS run:

Total                                  ...    90509.911 sec
NEB                                    ...    90509.911 sec  100.0%


--------------------------------
SUGGESTED CITATIONS FOR THIS RUN
--------------------------------

Below you find a list of papers that are relevant to this ORCA run
We neither can nor want to force you to cite these papers, but we appreciate if you do
You receive ORCA, which is the product of decades of hard work by many enthusiastic individuals, for free
The only thing we kindly ask in return is that you cite our papers,
We deeply appreciate it, if you show your appreciation for ORCA by not just citing the generic ORCA reference.

Please note that relegating all ORCA citations to the supporting information does *not* help us.
SI sections are not indexed - citations you put there will not count into any citation statistics
But we need these citations in order to attract the funding resources that allow us to do what we are doing

Therefore, if you are a happy ORCA user, please consider citing a few of the papers listed below in the main body of your paper

In addition to the list printed below, the program has created the file orca.bibtex that contains the list in bibtex format
You can import this file easily into all common literature databanks and citation aid programs


List of essential papers. We consider these as the minimum necessary citations

  1. Neese, F.
     Software update: the ORCA program system, version 6.0
     WIRES Comput. Molec. Sci. 2025 15(1), e70019
     doi.org/10.1002/wcms.7019

List of papers to cite with high priority. The work reported in these papers was absolutely
necessary for this run to complete.
Our perspective: the developers of density functionals and basis sets usually get cited in chemistry papers
Good! But without the algorithms to do something with them, the functionals or basis sets would not do anything.
Hence, in our opinion, the algorithm design and method developments papers are equally worthy of getting cited

  1. Neese, F.
     An improvement of the resolution of the identity approximation for the formation of the Coulomb matrix
     J. Comp. Chem. 2003 24(14), 1740-1747
     doi.org/10.1002/jcc.10318
  2. Neese, F.; Wennmohs, F.; Hansen, A.; Becker, U.
     Efficient, approximate and parallel Hartree-Fock and hybrid DFT calculations. A 'chain-of-spheres' algorithm for the Hartree-Fock exchange
     Chem. Phys. 2009 356(1-3), 98-109
     doi.org/10.1016/j.chemphys.2008.10.036
  3. Garcia-Rates, M.; Neese, F.
     Effect of the Solute Cavity on the Solvation Energy and its Derivatives within the Framework of the Gaussian Charge Scheme
     J. Comput. Chem. 2020 41 , 922-939
     doi.org/10.1002/jcc.26139
  4. Asgeirsson, V.; Orri Birgisson, B.; Björnsson, R.; Becker, U.; Neese, F.; Riplinger, C.; Jonsson, H.
     Nudged Elastic Band Method for Molecular Reactions Using Energy-Weighted Springs Combined with Eigenvector Following
     J. Chem. Theory Comput. 2021 17(8), 4929-4945
     doi.org/10.1021/acs.jctc.1c00462
  5. Helmich-Paris, B.; de Souza, B.; Neese, F.; Izsák, R.
     An improved chain of spheres for exchange algorithm
     J. Chem. Phys. 2021 155(10), 104109
     doi.org/10.1063/5.0058766
  6. Neese, F.
     The SHARK Integral Generation and Digestion System
     J. Comp. Chem. 2022 44(3), 381
     doi.org/10.1002/jcc.26942
  7. Schmerwitz, Y.L.A.; Asgeirsson, V.; Jonsson, H.
     Improved Initialization of Optimal Path Calculations
     Using Sequential Traversal over the
     Image-Dependent Pair Potential Surface
     J. Chem. Theory Comput. 2023 20(1), 155-163
     doi.org/10.1021/acs.jctc.3c01111

List of suggested additional citations. These are papers that are important in the 'surrounding' of 
of this run, or papers that preceded the highly important papers. If you like your results we are grateful for a citation.

  1. Izsak, R.; Neese, F.
     An overlap fitted chain of spheres exchange method
     J. Chem. Phys. 2011 135 , 144105
     doi.org/10.1063/1.3646921
  2. Izsak, R.; Hansen, A.; Neese, F.
     The resolution of identity and chain of spheres approximations for the LPNO-CCSD singles Fock term
     Molec. Phys. 2012 110 , 2413-2417
     doi.org/10.1080/00268976.2012.687466
  3. Neese, F.
     The ORCA program system
     WIRES Comput. Molec. Sci. 2012 2(1), 73-78
     doi.org/10.1002/wcms.81
  4. Izsak, R.; Neese, F.; Klopper, W.
     Robust fitting techniques in the chain of spheres approximation to the Fock exchange: The role of the complementary space
     J. Chem. Phys. 2013 139 , 
     doi.org/10.1063/1.4819264
  5. Neese, F.
     Software update: the ORCA program system, version 4.0
     WIRES Comput. Molec. Sci. 2018 8(1), 1-6
     doi.org/10.1002/wcms.1327
  6. Neese, F.; Wennmohs, F.; Becker, U.; Riplinger, C.
     The ORCA quantum chemistry program package
     J. Chem. Phys. 2020 152(22), 224108
     doi.org/10.1063/5.0004608
  7. Neese, F.
     Software update: The ORCA program system—Version 5.0
     WIRES Comput. Molec. Sci. 2022 12(1), e1606
     doi.org/10.1002/wcms.1606

List of optional additional citations

  1. Neese, F.
     Approximate second-order SCF convergence for spin unrestricted wavefunctions
     Chem. Phys. Lett. 2000 325(1-3), 93-98
     doi.org/10.1016/s0009-2614(00)00662-x

Timings for individual modules:

Sum of individual times          ...    90576.060 sec (=1509.601 min)
Startup calculation              ...        7.590 sec (=   0.127 min)   0.0 %
SCF iterations                   ...       46.451 sec (=   0.774 min)   0.1 %
SCF Gradient evaluation          ...       12.108 sec (=   0.202 min)   0.0 %
NEB Iterations                   ...    90509.911 sec (=1508.499 min)  99.9 %
                             ****ORCA TERMINATED NORMALLY****
TOTAL RUN TIME: 1 days 1 hours 8 minutes 35 seconds 246 msec
