
                                 *****************
                                 * O   R   C   A *
                                 *****************

                                            #,                                       
                                            ###                                      
                                            ####                                     
                                            #####                                    
                                            ######                                   
                                           ########,                                 
                                     ,,################,,,,,                         
                               ,,#################################,,                 
                          ,,##########################################,,             
                       ,#########################################, ''#####,          
                    ,#############################################,,   '####,        
                  ,##################################################,,,,####,       
                ,###########''''           ''''###############################       
              ,#####''   ,,,,##########,,,,          '''####'''          '####       
            ,##' ,,,,###########################,,,                        '##       
           ' ,,###''''                  '''############,,,                           
         ,,##''                                '''############,,,,        ,,,,,,###''
      ,#''                                            '''#######################'''  
     '                                                          ''''####''''         
             ,#######,   #######,   ,#######,      ##                                
            ,#'     '#,  ##    ##  ,#'     '#,    #''#        ,####,    ,#,          
            ##       ##  ##   ,#'  ##            #'  '#       #'       ,# #          
            ##       ##  #######   ##           ,######,      #####,      #          
            '#,     ,#'  ##    ##  '#,     ,#' ,#      #,     #,   #      #          
             '#######'   ##     ##  '#######'  #'      '#     '####' #    #          



                #########################################################
                #                        -***-                          #
                #          Department of theory and spectroscopy        #
                #                                                       #
                #                      Frank Neese                      #
                #                                                       #
                #     Directorship, Architecture, Infrastructure        #
                #                    SHARK, DRIVERS                     #
                #        Core code/Algorithms in most modules           #
                #                                                       #
                #        Max Planck Institute fuer Kohlenforschung      #
                #                Kaiser Wilhelm Platz 1                 #
                #                 D-45470 Muelheim/Ruhr                 #
                #                      Germany                          #
                #                                                       #
                #                  All rights reserved                  #
                #                        -***-                          #
                #########################################################


                         Program Version 6.1.0-f.0  -   RELEASE   -


 With contributions from (in alphabetic order):
[Max-Planck-Institut fuer Kohlenforschung]                               
  Daniel Aravena         : Magnetic Suceptibility                        
  Michael Atanasov       : Ab Initio Ligand Field Theory (pilot matlab implementation)
  Alexander A. Auer      : GIAO ZORA, VPT2 properties, NMR spectrum      
  Ute Becker             : All parallelization in ORCA, NUMFREQ, NUMCALC 
  Giovanni Bistoni       : ED, misc. LED, open-shell LED, HFLD           
  Dmytro Bykov           : pre 5.0 version of the SCF Hessian            
  Marcos Casanova-Páez   : Triplet and SCS-CIS(D). UHF-(DLPNO)-IP/EA/STEOM-CCSD. UHF-CVS-IP/STEOM-CCSD   
  Vijay G. Chilkuri      : MRCI spin determinant printing, contributions to CSF-ICE 
  Pauline Colinet        : FMM embedding                                 
  Dipayan Datta          : RHF DLPNO-CCSD density                        
  Achintya Kumar Dutta   : EOM-CC, STEOM-CC                              
  Nicolas Foglia         : Exact transition moments, OPA infrastructure, MCD improvements    
  Dmitry Ganyushin       : Spin-Orbit,Spin-Spin,Magnetic field MRCI      
  Miquel Garcia-Rates    : C-PCM and meta-GGA Hessian, CCSD/C-PCM, Gaussian charge scheme 
  Tiago L. C. Gouveia    : GS-ROHF, GS-ROCIS                             
  Yang Guo               : DLPNO-NEVPT2, F12-NEVPT2, CIM, IAO-localization        
  Andreas Hansen         : Spin unrestricted coupled pair/coupled cluster methods 
  Ingolf Harden          : AUTO-CI MPn and infrastructure                
  Benjamin Helmich-Paris : MC-RPA, TRAH-(SCF,CASSCF), AVAS, COSX integrals, SCF dyn. polar., MC-PDFT, srDFT 
  Lee Huntington         : MR-EOM, pCC                                   
  Robert Izsak           : Overlap fitted RIJCOSX, COSX-SCS-MP3, EOM     
  Riya Kayal             : Wick's Theorem for AUTO-CI, AUTO-CI UHF-CCSDT 
  Emily Kempfer          : AUTO-CI RHF CISDT and CCSDT, approximate NEVPT4
  Christian Kollmar      : KDIIS, OOCD, Brueckner-CCSD(T), CCSD density, CASPT2, CASPT2-K, improved NEVPT2 
  Axel Koslowski         : Symmetry handling                             
  Simone Kossmann        : meta-GGA functionals, TD-DFT gradient, OOMP2, (MP2 Hessian; deprecated post 5.0) 
  Lucas Lang             : DCDCAS, Hyperfine gauge corrections, ICE-SOC+SSC
  Marvin Lechner         : AUTO-CI (C++ implementation), FIC-MRCC        
  Spencer Leger          : CASSCF response                               
  Dagmar Lenk            : GEPOL surface, SMD, ORCA-2-JSON               
  Dimitrios Liakos       : Extrapolation schemes; Compound Job, Property file
  Dimitrios Manganas     : Further ROCIS development; embedding schemes. LFT, Crystal Embedding 
  Dimitrios Pantazis     : SARC Basis sets                               
  Anastasios Papadopoulos: AUTO-CI, single reference methods and gradients 
  Taras Petrenko         : pre 6.0 DFT Hessian and TD-DFT gradient,  ECA, NRVS 
  Petra Pikulova         : Analytic Raman intensities                    
  Peter Pinski           : DLPNO-MP2, DLPNO-MP2 Gradient                 
  Shashank Vittal Rao    : ES-AILFT, MagRelax                            
  Christoph Reimann      : Effective Core Potentials                     
  Marius Retegan         : Local ZFS, SOC                                
  Christoph Riplinger    : Optimizer, TS searches, QM/MM, DLPNO-CCSD(T), (RO)-DLPNO pert. Triples 
  Michael Roemelt        : Original ROCIS implementation, recursive CI coupling coefficients
  Masaaki Saitow         : Open-shell DLPNO-CCSD energy and density      
  Barbara Sandhoefer     : DKH picture change effects                    
  Yorick L. A. Schmerwitz: GMF and freeze-and-release deltaSCF, NEB S-IDPP initial path                    
  Kantharuban Sivalingam : CASSCF convergence/infrastructure, NEVPT2, NEVPT3, NEVPT4(SD), FIC-MRCI and CEPA variants
  Bernardo de Souza      : ESD, SOC TD-DFT                               
  Georgi L. Stoychev     : AutoAux, RI-MP2 NMR, DLPNO-MP2 response, X2C  
  Van Anh Tran           : RI-MP2 g-tensors                              
  Willem Van den Heuvel  : Paramagnetic NMR                              
  Zikuan Wang            : NOTCH, Electric field optimization            
  Frank Wennmohs         : Technical directorship and infrastructure     
  Hang Xu                : AUTO-CI-Response properties                   
                                                                         
[FACCTs GmbH]                                                            
  Markus Bursch, Nicolas Foglia, Miquel Garcia-Rates, Ingolf Harden, Hagen Neugebauer, Anastasios Papadopoulos, 
  Christoph Riplinger, Bernardo de Souza, Georgi L. Stoychev                                                    
                                                                 
  APM, various basis sets, CI-OPT, improved COSX, DLPNO-Multilevel,           
  DOCKER, DRACO, updates on ESD, Fragmentator, GOAT, IRC, LR-CPCM, L-BFGS, MBIS, meta-GGA TD-DFT gradient, ML-optimized integration grids, 
  MM, NACMEs, nearIR, NEB, NEB-TS, NL-DFT gradient (VV10), 2- and 3-layer-ONIOM, interface openCOSMO-RS, QMMM,   
  Crystal-QMMM, RESP, rigid body optimization, SF, symmetry and pop. for TD-DFT, various functionals, SOLVATOR                                   
                                                                         
[Other institutions]                                                     
  V. Asgeirsson          : NEB                                           
  Christoph Bannwarth    : sTDA-DFT, sTD-DFT, PBEh-3c, B97-3c, D3        
  Giovanni Bistoni       : ETS/NOCV, ADLD/ADEX, COVALED                  
  Martin Brehm           : Molecular dynamics                            
  Ronald Cardenas        : ETS/NOCV                                      
  Martina Colucci        : COVALED                                       
  Sebastian Ehlert       : rSCAN, r2SCAN, r2SCAN-3c, D4, dhf basis sets  
  Marvin Friede          : D4 for Fr, Ra, Ac-Lr                          
  Lars Goerigk           : TD-DFT with DH, B97 family of functionals     
  Stefan Grimme          : VdW corrections, initial TS optimization, DFT functionals, gCP, sTDA/sTD-DF 
  Waldemar Hujo          : DFT-NL                                        
  H. Jonsson             : NEB                                           
  Holger Kruse           : gCP                                           
  Marcel Mueller         : wB97X-3c, vDZP basis set                      
  Hagen Neugebauer       : wr2SCAN, Native XTB                           
  Gianluca Regni         : ADLD/ADEX                                     
  Tobias Risthaus        : pre 6.0 range-separated hybrid DFT and stability analysis
  Lukas Wittmann         : regularized MP2, r2SCAN double-hybrids, wr2SCAN        
                                                                         
We gratefully acknowledge several colleagues who have allowed us to      
interface, adapt or use parts of their codes:                            
  Ed Valeev, F. Pavosevic, A. Kumar             : LibInt (2-el integral package), F12 methods 
  Garnet Chan, S. Sharma, J. Yang, R. Olivares  : DMRG                   
  Ulf Ekstrom                                   : XCFun DFT Library      
  Mihaly Kallay                                 : mrcc  (arbitrary order and MRCC methods)
  Frank Weinhold                                : gennbo (NPA and NBO analysis)           
  Simon Mueller                                 : openCOSMO-RS                            
  Christopher J. Cramer and Donald G. Truhlar   : smd solvation model                     
  S Lehtola, MJT Oliveira, MAL Marques          : LibXC Library                           
  Liviu Ungur et al                             : ANISO software                          


 Your calculation uses the libint2 library for the computation of 2-el integrals
 For citations please refer to: http://libint.valeyev.net

 Your ORCA version has been built with support for libXC version: 7.0.0
 For citations please refer to: https://libxc.gitlab.io

 This ORCA versions uses:
   CBLAS   interface :  Fast vector & matrix operations
   LAPACKE interface :  Fast linear algebra routines
   SCALAPACK package :  Parallel linear algebra routines
   Shared memory     :  Shared parallel matrices
   BLAS/LAPACK       :  OpenBLAS 0.3.29  USE64BITINT DYNAMIC_ARCH NO_AFFINITY Zen SINGLE_THREADED
        Core in use  :  Zen
   Copyright (c) 2011-2014, The OpenBLAS Project


  ***********************************
  * Starting time: Fri Oct 17 08:49:16 2025
  * Host name:     mc057.hpc.nesi.org.nz
  * Process ID:    791330
  * Working dir.:  /nesi/nobackup/nesi99999/geoffreyweal/ORCA_tutorial/Step2Bb_NEB/Step2B_4_Run_NEB_Calculation_using_FIRE
  ***********************************

NOTE: MaxCore=2000 MB was set to SCF,MP2,MDCI,CIPSI,MRCI,RASCI and CIS
      => If you want to overwrite this, your respective input block should be placed after the MaxCore statement


***************************************
The coordinates will be read from file: reactant_opt_unconstrained.xyz
***************************************


Your calculation utilizes the atom-pairwise dispersion correction
with the Becke-Johnson damping scheme (D3BJ)


Your calculation utilizes a Nudged-Elastic-Band implementation
by V. Ásgeirsson, C. Riplinger & H. Jónsson
Please cite in your paper:
Ásgeirsson, V.; Birgisson, B. O.; Bjornsson, R.; Becker, U.; Neese, F.; Riplinger, R.;
Jónsson H. J. Chem. Theory Comput. 2021, 17, 4929-4945
   

Warning: RI is on but no J-basis has been assigned. Assigning Def2/J (nothing to worry about!)
================================================================================

----- Orbital basis set information -----
Your calculation utilizes the basis: def2-TZVP
   F. Weigend and R. Ahlrichs, Phys. Chem. Chem. Phys. 7, 3297 (2005).

----- AuxJ basis set information -----
Your calculation utilizes the auxiliary basis: def2/J
   H-Rn: F. Weigend, Phys. Chem. Chem. Phys. 8, 1057 (2006).
   Fr-Lr: K. Eichkorn, F. Weigend, O. Treutler, R. Ahlrichs; Theor. Chem. Acc. 97, 119 (1997).

================================================================================
                                        WARNINGS
                       Please study these warnings very carefully!
================================================================================


WARNING: Geometry Optimization
  ===> : Switching off AutoStart
         For restart on a previous wavefunction, please use MOREAD

================================================================================
                                       INPUT FILE
================================================================================
NAME = orca.inp
|  1> !B3LYP DEF2-TZVP D3BJ
|  2> !NEB-TS FREQ TightSCF defgrid2
|  3> %SCF
|  4>     MaxIter 2000       # Here setting MaxIter to a very high number. Intended for systems that require sometimes 1000 iterations before converging (very rare).
|  5>     DIISMaxEq 5        # Default value is 5. A value of 15-40 necessary for difficult systems.
|  6>     directresetfreq 15 # Default value is 15. A value of 1 (very expensive) is sometimes required. A value between 1 and 15 may be more cost-effective.
|  7> END
|  8> %CPCM EPSILON 6.02 REFRAC 1.3723 END
|  9> %PAL NPROCS 32 END
| 10> %maxcore 2000 # This indicates you want ORCA to use only 2GB per core maximum, so ORCA will use only 2GB*32=64GB of memory in total.
| 11> %NEB
| 12>     NEB_END_XYZFILE "product_opt.xyz"
| 13>     Nimages 100
| 14>     Interpolation IDPP
| 15>     Opt_Method FIRE
| 16> END
| 17> * XYZfile 1 1 reactant_opt_unconstrained.xyz
| 18> 
| 19>                          ****END OF INPUT****
================================================================================


--------------------------------------------------------------------------------
                        Nudged Elastic Band Calculation
--------------------------------------------------------------------------------

Number of images (incl. end points)     ....  102
Number of intermediate images           ....  100
Number of optimized images              ....  100
Optimization of end points before NEB   ....  NO
Use existing gbw files for MO input     ....  NO
Number of atoms                         ....  18
Number of (active) degrees of freedom   ....  54
Constrained atoms                       ....  None

-----------------------------------------
  REACTANT (ANGSTROEM)
-----------------------------------------
C     -2.981170     1.807894     1.607572 
C     -1.885423     2.661113     1.501598 
C     -0.724414     2.408079     2.225371 
C     -0.669812     1.274888     3.053843 
C     -1.770486     0.428418     3.166717 
C     -2.929978     0.699342     2.445705 
H     -3.878863     2.014510     1.039025 
H     -3.785164     0.041244     2.527983 
H     -1.935668     3.530878     0.857786 
H      0.258358     1.023159     3.560827 
H     -1.713010    -0.448205     3.798923 
C      0.423225     3.383828     2.237078 
N      0.320522     4.230126     3.468140 
H     -0.299230     5.017694     3.293941 
H      1.225578     4.623687     3.709501 
H      0.420399     4.008693     1.343659 
H      1.373817     2.854811     2.288605 
Cu    -0.536114     3.077338     4.860404 

-----------------------------------------
  PRODUCT (ANGSTROEM)
-----------------------------------------
C     -2.988620     1.819329     1.605387 
C     -1.900138     2.666334     1.504382 
C     -0.727727     2.400106     2.235605 
C     -0.667116     1.266306     3.067942 
C     -1.760024     0.429263     3.163972 
C     -2.919247     0.701852     2.432981 
H     -3.889160     2.025652     1.043314 
H     -3.769756     0.037331     2.512291 
H     -1.939782     3.536898     0.862308 
H      0.225406     1.036279     3.634672 
H     -1.717588    -0.440597     3.805218 
C      0.352256     3.327667     2.083026 
N      1.528708     3.287384     2.748929 
H      1.679487     2.616131     3.494728 
H      2.065013     4.145101     2.833067 
H      0.169645     4.240862     1.528906 
H      1.767841     2.039377    -0.537746 
Cu     1.913260     2.499184     0.894056 



----------------------
NEB settings
----------------------
Method type                             ....  climbing image
Threshold for climbing image            ....  2.00e-01 Eh/Bohr 
Free endpoints                          ....  off 
Tangent type                            ....  improved 
Number of intermediate images           ....  100 
Number of images free to move           ....  100 
Spring type for image distribution      ....  distance between adjacent images 
Spring constant                         ....  energy weighted (0.0100 -to- 0.1000) Eh/Bohr^2 
Spring force perp. to the path          ....  none 
Generation of initial path              ....  image dependent pair potential 
Initial path via TS guess               ....  off 

Minimization of RMSD: Rotation          ....  always 
Minimization of RMSD: Translation type  ....  centroid 
Center fixed to origin                  ....  true 
Remove external force                   ....  true 

Reparametrization of the path           ....  off 
Convergence thresholds:
Convergence monitored for               ....  all images
Scaling factor                          ....  10.00

Convergence parameters for regular images:
               Max(|Fp|)                ....  2.00e-02 Eh/Bohr
               RMS(Fp)                  ....  1.00e-02 Eh/Bohr

Convergence parameters for climbing image:
               Max(|F|)                 ....  2.00e-03 Eh/Bohr
               RMS(F)                   ....  1.00e-03 Eh/Bohr
Optimization method:
Method                                  ....  FIRE (local)
Max. iterations                         ....  1000 
Step size                               ....  0.50 
Maximum allowed step size               ....  0.20 Bohr
FIRE parameters 
               Initial damp. factor     ....  0.10 
               Damp. factor decr.       ....  0.99 
               Step size incr.          ....  1.10 
               Step size decr.          ....  0.50 
               Max step size            ....  5.00 
               Retention index          ....   5
Generation of  the initial path:
Minimize RMSD between reactant and product configurations     .... done
       RMSD before minimization         ....  1.7319 Bohr
       RMSD after minimization          ....  1.3234 Bohr
Performing linear interpolation         ....  done
Generating initial path 1 out of 129 -> Success!
Displacement along initial path:             12.0441 Bohr
Writing initial trajectory to file      ....  orca_initial_path_trj.xyz



----------------------
NEB OPTIMIZATION      
----------------------

Following output files will be written:
Energy profile during opt. written to    ....  orca.interp
Optimization log-file                    ....  orca.NEB.log
Current trajectory will be written to    ....  orca_MEP_trj.xyz
       and to allxyz file                ....  orca_MEP.allxyz
       and individual images to xyz file ....  orca_im{NIm}.xyz
Trajectory history will be written to    ....  orca_MEP_ALL_trj.xyz
Converged CI will be written to          ....  orca_NEB-CI_converged.xyz
Converged TS will be written to          ....  orca_NEB-TS_converged.xyz

Single point energy and gradient calculation of reactant and
product configurations (have to be performed only once)


           ************************************************************
           *        Program running with 32 parallel MPI-processes    *
           *              working on a common directory               *
           ************************************************************

------------------------------------------------------------------------------
                         ORCA PROPERTY INTEGRAL CALCULATIONS
------------------------------------------------------------------------------

GBWName                                   ... orca_im0.gbw
Number of atoms                           ...     18
Number of basis functions                 ...    347
Max core memory                           ...   2000 MB

Dipole integrals                          ... YES
Quadrupole integrals                      ...  NO
Linear momentum integrals                 ...  NO
Angular momentum integrals                ...  NO
Higher moments length integrals           ...  NO
Higher moments velocity integrals         ...  NO
Kinetic energy integrals                  ...  NO
GIAO right hand sides                     ...  NO
GIAO dipole derivative integrals          ...  NO
SOC integrals                             ...  NO
EPR diamagnetic integrals (GIAO)          ...  NO
EPR gauge integrals                       ...  NO
Field gradient integrals                  ...  NO (   0 nuclei)
Spin-dipole/Fermi contact integrals       ...  NO (   0 nuclei)
Contact density integrals                 ...  NO (   0 nuclei)
Nucleus-orbit integrals                   ...  NO (   0 nuclei)
Geometric perturbations                   ... YES (  18 nuclei)

Choice of electric origin   ... Center of mass
Position of electric origin ... (  0.1823,  0.2812,  1.4334) 
Choice of magnetic origin   ... GIAO
Position of magnetic origin ... (  0.0000,  0.0000,  0.0000) 

Calculating integrals                     ... Electric Dipole (Length)     done (  0.4 sec)
Calculating integrals                     ... Geometrical perturbation right hand sides

-----------------------
GEOMETRIC PERTURBATIONS (18 nuclei)
-----------------------

MaxCore                            ...   2000 MB
Number of batches                  ...      1

BATCH   0: Atoms    0 -   17 ( 54 perturbations)
   => H(core) and overlap derivative integrals     ... done (     0.2 sec)
   => Making and storing internal U-coefficients   ... done (     0.0 sec)
   => RI-J derivative integrals                    ... done (     1.8 sec)
   => RI-J response operators                      ... done (     0.4 sec)
   => Chain of spheres derivative integrals        ... done (     4.3 sec)
   => Chain of spheres response operator           ... done (     4.4 sec)
   => XC derivative integrals                      ... done (    13.4 sec)
   => XC response operators                        ... done (     3.4 sec)
   => CPCM derivative integrals                    ... done (     4.7 sec)
   => CPCM response operators                      ... done (     7.7 sec)
   => Completing and storing right hand sides      ... done (     0.0 sec)
   => Total time for right hand sides =  37.3 sec

  geometrical perturbations done ( 37.4 sec)

Property integrals calculated in  37.8 sec

Maximum memory used throughout the entire PROPINT-calculation: 488.4 MB


           ************************************************************
           *        Program running with 32 parallel MPI-processes    *
           *              working on a common directory               *
           ************************************************************

------------------------------------------------------------------------------
                         ORCA PROPERTY INTEGRAL CALCULATIONS
------------------------------------------------------------------------------

GBWName                                   ... orca_im101.gbw
Number of atoms                           ...     18
Number of basis functions                 ...    347
Max core memory                           ...   2000 MB

Dipole integrals                          ... YES
Quadrupole integrals                      ...  NO
Linear momentum integrals                 ...  NO
Angular momentum integrals                ...  NO
Higher moments length integrals           ...  NO
Higher moments velocity integrals         ...  NO
Kinetic energy integrals                  ...  NO
GIAO right hand sides                     ...  NO
GIAO dipole derivative integrals          ...  NO
SOC integrals                             ...  NO
EPR diamagnetic integrals (GIAO)          ...  NO
EPR gauge integrals                       ...  NO
Field gradient integrals                  ...  NO (   0 nuclei)
Spin-dipole/Fermi contact integrals       ...  NO (   0 nuclei)
Contact density integrals                 ...  NO (   0 nuclei)
Nucleus-orbit integrals                   ...  NO (   0 nuclei)
Geometric perturbations                   ... YES (  18 nuclei)

Choice of electric origin   ... Center of mass
Position of electric origin ... (  1.5437,  0.4096,  0.0379) 
Choice of magnetic origin   ... GIAO
Position of magnetic origin ... (  0.0000,  0.0000,  0.0000) 

Calculating integrals                     ... Electric Dipole (Length)     done (  0.0 sec)
Calculating integrals                     ... Geometrical perturbation right hand sides

-----------------------
GEOMETRIC PERTURBATIONS (18 nuclei)
-----------------------

MaxCore                            ...   2000 MB
Number of batches                  ...      1

BATCH   0: Atoms    0 -   17 ( 54 perturbations)
   => H(core) and overlap derivative integrals     ... done (     0.2 sec)
   => Making and storing internal U-coefficients   ... done (     0.1 sec)
   => RI-J derivative integrals                    ... done (     2.0 sec)
   => RI-J response operators                      ... done (     0.5 sec)
   => Chain of spheres derivative integrals        ... done (     4.5 sec)
   => Chain of spheres response operator           ... done (     5.2 sec)
   => XC derivative integrals                      ... done (    14.2 sec)
   => XC response operators                        ... done (     3.5 sec)
   => CPCM derivative integrals                    ... done (     4.8 sec)
   => CPCM response operators                      ... done (     7.9 sec)
   => Completing and storing right hand sides      ... done (     0.0 sec)
   => Total time for right hand sides =  39.7 sec

  geometrical perturbations done ( 39.8 sec)

Property integrals calculated in  39.8 sec

Maximum memory used throughout the entire PROPINT-calculation: 488.0 MB
Properties of fixed NEB end points:
               Reactant:
                         E               ....  -1967.196363 Eh
                         RMS(F)          ....      0.000007 Eh/Bohr
                         MAX(|F|)        ....      0.000026 Eh/Bohr
               Product:
                         E               ....  -1967.143638 Eh
                         RMS(F)          ....      0.000159 Eh/Bohr
                         MAX(|F|)        ....      0.000520 Eh/Bohr



Starting iterations:

Optim.  Iteration  HEI  E(HEI)-E(0)  max(|Fp|)   RMS(Fp)    dS
Switch-on CI threshold               0.200000 
    FIRE     0      49   0.142014    0.068325   0.010971  12.0441       

Image 49 will be converted to a climbing image in the next iteration (max(|Fp|) < 0.2000) 

Optim.  Iteration  CI   E(CI)-E(0)   max(|Fp|)   RMS(Fp)    dS     max(|FCI|)   RMS(FCI)
Convergence thresholds               0.020000   0.010000            0.002000    0.001000 
    FIRE     1      49   0.140626    0.066450   0.010540  12.0350    0.034350    0.009694       
    FIRE     2      49   0.138158    0.067513   0.009870  12.0211    0.035564    0.008944       
    FIRE     3      49   0.134939    0.068695   0.009232  12.0091    0.037381    0.008622       
    FIRE     4      49   0.131052    0.069782   0.008751  12.0060    0.039786    0.008784       
    FIRE     5      53   0.128882    0.070169   0.008414  12.0241    0.028874    0.007346       
    FIRE     6      53   0.125068    0.070027   0.008050  12.0741    0.030396    0.007139       
    FIRE     7      53   0.120256    0.089845   0.007971  12.1695    0.032445    0.007070       
    FIRE     8      53   0.114182    0.118101   0.008331  12.3339    0.035191    0.007513       
    FIRE     9      53   0.106211    0.144070   0.008749  12.5906    0.038756    0.008022       
    FIRE    10      55   0.099915    0.149970   0.008547  12.9045    0.027359    0.006313       
    FIRE    11      55   0.090816    0.143051   0.007916  13.2317    0.029900    0.006128       
    FIRE    12      55   0.081514    0.113983   0.006708  13.5398    0.033239    0.006182       
    FIRE    13      55   0.076729    0.088904   0.005499  13.8202    0.036468    0.008273       
    FIRE    14      55   0.076940    0.095534   0.005040  14.0842    0.035758    0.008029       
    FIRE    15      58   0.088074    0.067295   0.004502  13.9226    0.019068    0.003728       
    FIRE    16      58   0.087445    0.035460   0.004158  13.7775    0.015578    0.003265       
    FIRE    17      58   0.086822    0.035019   0.003949  13.7288    0.011833    0.002866       
    FIRE    18      58   0.086237    0.034145   0.003684  13.8529    0.008102    0.002551       
    FIRE    19      58   0.085653    0.032819   0.003353  14.1907    0.007807    0.002322       
    FIRE    20      58   0.085087    0.031005   0.003158  14.6898    0.008267    0.002263       
    FIRE    21      58   0.084525    0.028753   0.003132  15.2290    0.009198    0.002358       
    FIRE    22      58   0.083910    0.026195   0.002965  15.4946    0.010139    0.002432       
    FIRE    23      58   0.083195    0.023041   0.002710  15.5402    0.010093    0.002394       
    FIRE    24      58   0.082365    0.019905   0.002382  15.4906    0.008786    0.002258       
    FIRE    25      60   0.082629    0.018532   0.002146  15.5287    0.015488    0.002844       
    FIRE    26      60   0.082451    0.018709   0.002128  15.5185    0.014816    0.002763       
    FIRE    27      60   0.082230    0.022657   0.002175  15.5889    0.013978    0.002673       
    FIRE    28      60   0.081971    0.023405   0.002124  15.7990    0.012984    0.002581       
    FIRE    29      60   0.081684    0.024576   0.002000  16.0347    0.011856    0.002498       
    FIRE    30      60   0.081354    0.021497   0.001816  16.3243    0.010557    0.002427       
    FIRE    31      60   0.080976    0.015651   0.001625  16.7146    0.009051    0.002383       
    FIRE    32      60   0.080558    0.016373   0.001570  17.3945    0.008401    0.002384       
    FIRE    33      60   0.080131    0.019958   0.001696  18.2945    0.009050    0.002443       
    FIRE    34      60   0.079695    0.025693   0.001924  18.8853    0.009616    0.002522       
    FIRE    35      60   0.079280    0.022674   0.001686  19.0559    0.009926    0.002553       
    FIRE    36      60   0.078757    0.028726   0.001578  19.2967    0.009868    0.002527       
    FIRE    37      60   0.078969    0.032790   0.001565  19.5698    0.009840    0.002526       
    FIRE    38      60   0.079008    0.037171   0.001543  19.7927    0.009771    0.002516       
    FIRE    39      60   0.079043    0.040953   0.001465  20.1752    0.009678    0.002506       
    FIRE    40      60   0.079068    0.036916   0.001445  20.7539    0.009571    0.002498       
Warning: maximum angle between images (39 - 40 - 41): 164.42
    FIRE    41      60   0.079067    0.034023   0.001386  21.5099    0.009456    0.002493       
    FIRE    42      60   0.079046    0.032874   0.001297  21.9865    0.009342    0.002496       
    FIRE    43      60   0.078998    0.032566   0.001207  22.2564    0.009253    0.002507       
    FIRE    44      60   0.078925    0.031962   0.001168  22.7932    0.009979    0.002528       
    FIRE    45      60   0.078776    0.028550   0.001116  22.7997    0.010545    0.002549       
    FIRE    46      60   0.078505    0.023475   0.001182  22.6967    0.010742    0.002552       
    FIRE    47      60   0.078086    0.024339   0.001015  22.4226    0.010554    0.002534       
    FIRE    48      60   0.077481    0.027644   0.001135  22.2078    0.009871    0.002484       
    FIRE    49      60   0.076688    0.022505   0.001086  22.0054    0.009454    0.002405       
    FIRE    50      57   0.076458    0.021326   0.000934  21.8008    0.003447    0.000866       
Warning: maximum angle between images (39 - 40 - 41): 167.66
    FIRE    51      57   0.076280    0.023984   0.000938  21.6172    0.003362    0.000871       
    FIRE    52      57   0.076126    0.022018   0.000942  21.3225    0.003057    0.000845       
    FIRE    53      57   0.076026    0.018196   0.000894  21.2341    0.002595    0.000860       
    FIRE    54      57   0.075998    0.016641   0.000826  21.3095    0.003025    0.000850       
    FIRE    55      57   0.076006    0.014938   0.000763  21.5947    0.003196    0.000820       
    FIRE    56      57   0.076000    0.012998   0.000720  21.9868    0.002636    0.000747       
    FIRE    57      57   0.075947    0.012136   0.000699  22.4733    0.002089    0.000655       
    FIRE    58      57   0.075788    0.011619   0.000709  22.9618    0.001693    0.000748       

                                .--------------------.
          ----------------------| CI-NEB convergence |-------------------------
          Item                value                   Tolerance       Converged
          ---------------------------------------------------------------------
          RMS(Fp)             0.0007092542            0.0100000000      YES
          MAX(|Fp|)           0.0116189855            0.0200000000      YES
          RMS(FCI)            0.0007482997            0.0010000000      YES
          MAX(|FCI|)          0.0016928692            0.0020000000      YES
          ---------------------------------------------------------------------

The elastic band and climbing image have converged successfully to a MEP in 58 iterations!


                    *********************H U R R A Y*********************
                    ***        THE NEB OPTIMIZATION HAS CONVERGED     ***
                    *****************************************************



---------------------------------------------------------------
                         PATH SUMMARY              
---------------------------------------------------------------
All forces in Eh/Bohr.

Image Dist.(Ang.)    E(Eh)   dE(kcal/mol)  max(|Fp|)  RMS(Fp)
  0     0.000   -1967.19636      0.00       0.00002   0.00001
  1     0.052   -1967.19635      0.01       0.00004   0.00001
  2     0.103   -1967.19631      0.04       0.00009   0.00004
  3     0.155   -1967.19627      0.06       0.00015   0.00004
  4     0.206   -1967.19623      0.08       0.00018   0.00005
  5     0.255   -1967.19621      0.10       0.00021   0.00007
  6     0.298   -1967.19619      0.11       0.00056   0.00016
  7     0.351   -1967.19612      0.15       0.00053   0.00017
  8     0.397   -1967.19607      0.19       0.00063   0.00020
  9     0.453   -1967.19596      0.25       0.00046   0.00015
 10     0.503   -1967.19587      0.31       0.00051   0.00017
 11     0.555   -1967.19577      0.37       0.00068   0.00020
 12     0.603   -1967.19571      0.41       0.00036   0.00012
 13     0.655   -1967.19561      0.47       0.00130   0.00039
 14     0.704   -1967.19553      0.53       0.00140   0.00041
 15     0.729   -1967.19548      0.55       0.00165   0.00048
 16     0.768   -1967.19540      0.60       0.00038   0.00014
 17     0.809   -1967.19530      0.67       0.00058   0.00017
 18     0.837   -1967.19522      0.72       0.00087   0.00026
 19     0.927   -1967.19493      0.90       0.00163   0.00045
 20     1.048   -1967.19508      0.80       0.00123   0.00044
 21     1.165   -1967.19489      0.92       0.00167   0.00043
 22     1.257   -1967.19473      1.02       0.00165   0.00043
 23     1.321   -1967.19462      1.09       0.00179   0.00047
 24     1.385   -1967.19449      1.18       0.00081   0.00028
 25     1.429   -1967.19439      1.24       0.00106   0.00041
 26     1.485   -1967.19424      1.33       0.00106   0.00039
 27     1.531   -1967.19424      1.33       0.00108   0.00035
 28     1.634   -1967.19395      1.51       0.00076   0.00023
 29     1.746   -1967.19343      1.84       0.00134   0.00045
 30     1.881   -1967.19395      1.52       0.00115   0.00049
 31     2.000   -1967.19382      1.59       0.00041   0.00018
 32     2.134   -1967.19346      1.82       0.00125   0.00043
 33     2.333   -1967.19251      2.42       0.00241   0.00076
 34     2.455   -1967.19312      2.03       0.00108   0.00040
 35     2.593   -1967.19297      2.13       0.00226   0.00069
 36     2.749   -1967.19286      2.20       0.00093   0.00034
 37     2.879   -1967.19248      2.44       0.00189   0.00058
 38     2.974   -1967.19243      2.47       0.00079   0.00029
 39     3.094   -1967.19185      2.83       0.00288   0.00074
 40     3.220   -1967.19212      2.67       0.00226   0.00064
 41     3.400   -1967.19186      2.82       0.00050   0.00020
 42     3.547   -1967.19143      3.10       0.00120   0.00043
 43     3.700   -1967.19113      3.28       0.00081   0.00037
 44     3.808   -1967.19123      3.22       0.00144   0.00037
 45     3.961   -1967.19089      3.44       0.00095   0.00035
 46     4.082   -1967.19070      3.55       0.00659   0.00224
 47     4.198   -1967.19052      3.67       0.00125   0.00042
 48     4.438   -1967.18988      4.07       0.00215   0.00096
 49     4.664   -1967.18854      4.91       0.00143   0.00035
 50     4.956   -1967.18415      7.67       0.00084   0.00022
 51     5.222   -1967.17703     12.13       0.00059   0.00016
 52     5.395   -1967.17075     16.07       0.01162   0.00215
 53     5.970   -1967.18473      7.30       0.00601   0.00158
 54     6.631   -1967.16597     19.07       0.00666   0.00222
 55     7.105   -1967.13663     37.48       0.00309   0.00094
 56     7.327   -1967.12255     46.32       0.00854   0.00211
 57     7.530   -1967.12058     47.56       0.00165   0.00074 <= CI
 58     7.975   -1967.12719     43.41       0.00366   0.00112
 59     8.417   -1967.13164     40.61       0.00744   0.00189
 60     8.786   -1967.12555     44.44       0.00700   0.00165
 61     8.955   -1967.12227     46.49       0.01012   0.00220
 62     9.013   -1967.12394     45.45       0.00387   0.00080
 63     9.111   -1967.12665     43.74       0.00148   0.00035
 64     9.192   -1967.12806     42.86       0.00745   0.00137
 65     9.264   -1967.12972     41.82       0.00159   0.00045
 66     9.360   -1967.13179     40.52       0.00099   0.00022
 67     9.462   -1967.13365     39.35       0.00153   0.00039
 68     9.571   -1967.13532     38.31       0.00178   0.00041
 69     9.698   -1967.13696     37.28       0.00167   0.00078
 70     9.868   -1967.13761     36.87       0.00246   0.00085
 71     9.951   -1967.13854     36.28       0.00065   0.00018
 72    10.044   -1967.13941     35.74       0.00047   0.00022
 73    10.145   -1967.14015     35.27       0.00069   0.00024
 74    10.267   -1967.14078     34.88       0.00126   0.00045
 75    10.400   -1967.14114     34.66       0.00159   0.00044
 76    10.477   -1967.14063     34.97       0.00256   0.00078
 77    10.537   -1967.14108     34.69       0.00151   0.00043
 78    10.639   -1967.14076     34.89       0.00197   0.00067
 79    10.721   -1967.14131     34.55       0.00116   0.00038
 80    10.892   -1967.14199     34.12       0.00093   0.00028
 81    11.013   -1967.14223     33.97       0.00153   0.00041
 82    11.087   -1967.14226     33.95       0.00147   0.00043
 83    11.141   -1967.14222     33.98       0.00129   0.00040
 84    11.250   -1967.14257     33.76       0.00167   0.00070
 85    11.306   -1967.14274     33.65       0.00128   0.00039
 86    11.368   -1967.14263     33.72       0.00085   0.00034
 87    11.407   -1967.14253     33.78       0.00098   0.00036
 88    11.456   -1967.14273     33.65       0.00039   0.00013
 89    11.513   -1967.14285     33.58       0.00104   0.00029
 90    11.563   -1967.14296     33.51       0.00077   0.00026
 91    11.606   -1967.14304     33.46       0.00076   0.00025
 92    11.653   -1967.14316     33.39       0.00060   0.00022
 93    11.706   -1967.14325     33.33       0.00051   0.00019
 94    11.760   -1967.14341     33.23       0.00043   0.00016
 95    11.816   -1967.14345     33.20       0.00037   0.00014
 96    11.874   -1967.14350     33.17       0.00031   0.00011
 97    11.928   -1967.14360     33.11       0.00025   0.00009
 98    11.981   -1967.14357     33.13       0.00020   0.00006
 99    12.037   -1967.14360     33.11       0.00014   0.00004
100    12.094   -1967.14367     33.07       0.00008   0.00002
101    12.151   -1967.14364     33.09       0.00048   0.00016

Straight line distance between images along the path:
        D( 0- 1) =   0.0517 Ang.
        D( 1- 2) =   0.0516 Ang.
        D( 2- 3) =   0.0514 Ang.
        D( 3- 4) =   0.0515 Ang.
        D( 4- 5) =   0.0486 Ang.
        D( 5- 6) =   0.0430 Ang.
        D( 6- 7) =   0.0532 Ang.
        D( 7- 8) =   0.0459 Ang.
        D( 8- 9) =   0.0565 Ang.
        D( 9-10) =   0.0492 Ang.
        D(10-11) =   0.0524 Ang.
        D(11-12) =   0.0481 Ang.
        D(12-13) =   0.0521 Ang.
        D(13-14) =   0.0486 Ang.
        D(14-15) =   0.0249 Ang.
        D(15-16) =   0.0398 Ang.
        D(16-17) =   0.0410 Ang.
        D(17-18) =   0.0271 Ang.
        D(18-19) =   0.0903 Ang.
        D(19-20) =   0.1209 Ang.
        D(20-21) =   0.1176 Ang.
        D(21-22) =   0.0916 Ang.
        D(22-23) =   0.0639 Ang.
        D(23-24) =   0.0638 Ang.
        D(24-25) =   0.0441 Ang.
        D(25-26) =   0.0567 Ang.
        D(26-27) =   0.0460 Ang.
        D(27-28) =   0.1024 Ang.
        D(28-29) =   0.1119 Ang.
        D(29-30) =   0.1355 Ang.
        D(30-31) =   0.1186 Ang.
        D(31-32) =   0.1338 Ang.
        D(32-33) =   0.1991 Ang.
        D(33-34) =   0.1219 Ang.
        D(34-35) =   0.1384 Ang.
        D(35-36) =   0.1555 Ang.
        D(36-37) =   0.1309 Ang.
        D(37-38) =   0.0943 Ang.
        D(38-39) =   0.1203 Ang.
        D(39-40) =   0.1265 Ang.
        D(40-41) =   0.1795 Ang.
        D(41-42) =   0.1473 Ang.
        D(42-43) =   0.1527 Ang.
        D(43-44) =   0.1081 Ang.
        D(44-45) =   0.1534 Ang.
        D(45-46) =   0.1207 Ang.
        D(46-47) =   0.1159 Ang.
        D(47-48) =   0.2397 Ang.
        D(48-49) =   0.2267 Ang.
        D(49-50) =   0.2912 Ang.
        D(50-51) =   0.2666 Ang.
        D(51-52) =   0.1731 Ang.
        D(52-53) =   0.5747 Ang.
        D(53-54) =   0.6611 Ang.
        D(54-55) =   0.4741 Ang.
        D(55-56) =   0.2223 Ang.
        D(56-57) =   0.2022 Ang.
        D(57-58) =   0.4459 Ang.
        D(58-59) =   0.4413 Ang.
        D(59-60) =   0.3688 Ang.
        D(60-61) =   0.1697 Ang.
        D(61-62) =   0.0583 Ang.
        D(62-63) =   0.0976 Ang.
        D(63-64) =   0.0810 Ang.
        D(64-65) =   0.0715 Ang.
        D(65-66) =   0.0961 Ang.
        D(66-67) =   0.1023 Ang.
        D(67-68) =   0.1090 Ang.
        D(68-69) =   0.1267 Ang.
        D(69-70) =   0.1705 Ang.
        D(70-71) =   0.0826 Ang.
        D(71-72) =   0.0927 Ang.
        D(72-73) =   0.1009 Ang.
        D(73-74) =   0.1222 Ang.
        D(74-75) =   0.1334 Ang.
        D(75-76) =   0.0768 Ang.
        D(76-77) =   0.0603 Ang.
        D(77-78) =   0.1021 Ang.
        D(78-79) =   0.0814 Ang.
        D(79-80) =   0.1710 Ang.
        D(80-81) =   0.1208 Ang.
        D(81-82) =   0.0741 Ang.
        D(82-83) =   0.0549 Ang.
        D(83-84) =   0.1081 Ang.
        D(84-85) =   0.0563 Ang.
        D(85-86) =   0.0617 Ang.
        D(86-87) =   0.0395 Ang.
        D(87-88) =   0.0490 Ang.
        D(88-89) =   0.0573 Ang.
        D(89-90) =   0.0497 Ang.
        D(90-91) =   0.0428 Ang.
        D(91-92) =   0.0471 Ang.
        D(92-93) =   0.0527 Ang.
        D(93-94) =   0.0541 Ang.
        D(94-95) =   0.0566 Ang.
        D(95-96) =   0.0574 Ang.
        D(96-97) =   0.0541 Ang.
        D(97-98) =   0.0536 Ang.
        D(98-99) =   0.0551 Ang.
        D(99-100) =   0.0576 Ang.
        D(100-101) =   0.0567 Ang.

---------------------------------------------------------------
               INFORMATION ABOUT SADDLE POINT     
---------------------------------------------------------------

Climbing image                            ....  57 
Energy                                    ....  -1967.12057527 Eh
Max. abs. force                           ....  1.6929e-03 Eh/Bohr

-----------------------------------------
  SADDLE POINT (ANGSTROEM)
-----------------------------------------
C     -1.762974    -0.719145    -1.355950 
C     -0.731206     0.205846    -1.248277 
C      0.141575     0.153543    -0.162065 
C     -0.027814    -0.828599     0.816380 
C     -1.048305    -1.757440     0.700006 
C     -1.915413    -1.708235    -0.388964 
H     -2.439607    -0.673270    -2.198510 
H     -2.697227    -2.448270    -0.489575 
H     -0.605767     0.971755    -2.004906 
H      0.663695    -0.887113     1.649407 
H     -1.155757    -2.532465     1.447809 
C      1.226624     1.154497    -0.075970 
N      1.299855     1.952955     1.090112 
H      0.582684     1.813230     1.786904 
H      1.565599     2.918403     0.952113 
H      1.409435     1.706949    -0.986653 
H      2.595405     0.068342    -0.462973 
Cu     2.899200     0.609017     0.931113 

-----------------------------------------
  FORCES (Eh/Bohr)
-----------------------------------------
C     -0.000138    -0.001370     0.001177 
C      0.000210     0.000681    -0.000836 
C      0.000520    -0.000480     0.000701 
C      0.000271     0.000704    -0.000415 
C     -0.000462    -0.000736     0.000753 
C      0.000177     0.001239    -0.001222 
H     -0.000095    -0.000109    -0.000395 
H     -0.000966    -0.000065     0.000159 
H      0.000192    -0.000704     0.000201 
H     -0.000250    -0.000611     0.000191 
H     -0.000448     0.000130    -0.000056 
C      0.000564    -0.000083     0.000840 
N      0.000336     0.000540    -0.001103 
H     -0.000534    -0.000839     0.001076 
H     -0.001142     0.000557     0.000491 
H      0.001655    -0.000190    -0.000158 
H     -0.001583     0.000472    -0.001173 
Cu     0.001693     0.000864    -0.000231 

-----------------------------------------
  UNIT TANGENT
-----------------------------------------
C      0.006653    -0.003357    -0.024465 
C      0.007602    -0.011461    -0.030826 
C     -0.040792     0.019584     0.012915 
C     -0.017904     0.012786     0.005575 
C     -0.015765     0.017891     0.006487 
C     -0.014052     0.019550     0.004020 
H      0.011944    -0.013206    -0.027633 
H     -0.017444     0.025570     0.008476 
H      0.020640    -0.015870    -0.036402 
H      0.008243     0.020497    -0.019265 
H     -0.033603     0.035598     0.021984 
C     -0.231188     0.156558     0.091298 
N     -0.143647     0.073466     0.000968 
H      0.105695    -0.092834     0.237505 
H     -0.104368     0.058651     0.056882 
H     -0.008711     0.018789     0.064556 
H      0.587966    -0.517521    -0.044395 
Cu    -0.121271     0.195309    -0.327681 
 => Unit tangent is an approximation to the TS mode at the saddle point

Next a TS optimization is performed on the CI from the NEB run.

         *************************************************************
         *                       TS OPTIMIZATION                     *
         *************************************************************


Following output files will be written:
Converged TS will be written to          ....  orca_NEB-TS_converged.xyz
                                         ....  orca.xyz
Current trajectory will be written to    ....  orca_trj.xyz
Initial Hessian will be stored in        ....  orca.appr.hess
 (Almloef) Geometry optimization settings:
Update method            Update   .... Bofill
Choice of coordinates    CoordSys .... (2022) Redundant Internals
Initial Hessian          InHess   .... Read
Max. no of cycles        MaxIter  .... 54

Convergence Tolerances:
Energy Change            TolE     ....  5.0000e-06 Eh
Max. Gradient            TolMAXG  ....  3.0000e-04 Eh/bohr
RMS Gradient             TolRMSG  ....  1.0000e-04 Eh/bohr
Max. Displacement        TolMAXD  ....  4.0000e-03 bohr
RMS Displacement         TolRMSD  ....  2.0000e-03 bohr
Strict Convergence                .... False

------------------------------------------------------------------------------
                        ORCA OPTIMIZATION COORDINATE SETUP
------------------------------------------------------------------------------

The optimization will be done in redundant internal coordinates (2022)
Making redundant internal coordinates   ...  (2022 redundants) done
Following TS mode number                ...     0
TS-active-atoms for coordinate setup... 16 17 
Evaluating the initial hessian          ... (Reading Exact Hessian)...  
InHessName: orca.appr.hess	The file <orca.appr.hess> is opened as a .hess file
done
done
Evaluating the coordinates              ...  done
Calculating the B-matrix                .... done
Calculating the G-matrix                .... done
The number of degrees of freedom        ....  103

    -----------------------------------------------------------------
                    Redundant Internal Coordinates


    -----------------------------------------------------------------
         Definition                    Initial Value    d2E/dq (diagonal element)
    -----------------------------------------------------------------
      1. B(C   1,C   0)                  1.3899         0.576228   
      2. B(C   2,C   1)                  1.3944         0.567172   
      3. B(C   3,C   2)                  1.3967         0.519099   
      4. B(C   4,C   3)                  1.3848         0.586771   
      5. B(C   5,C   4)                  1.3929         0.570308   
      6. B(C   5,C   0)                  1.3916         0.570922   
      7. B(H   6,C   0)                  1.0816         0.371448   
      8. B(H   7,C   5)                  1.0812         0.371921   
      9. B(H   8,C   1)                  1.0839         0.368294   
     10. B(H   9,C   3)                  1.0842         0.359404   
     11. B(H  10,C   4)                  1.0823         0.370413   
     12. B(C  11,C   2)                  1.4787         0.326288   
     13. B(N  12,C  11)                  1.4151         0.413149   
     14. B(H  13,N  12)                  1.0096         0.283853   
     15. B(H  14,N  12)                  1.0108         0.303122   
     16. B(H  15,C  11)                  1.0807         0.275708   
     17. B(Cu 17,H  15)                  2.6651         0.082403   
     18. B(Cu 17,H  14)                  2.6669         0.079120   
     19. B(Cu 17,H   9)                  2.7842         0.036666   
     20. B(Cu 17,C   3)                  3.2630         0.059155   
     21. B(Cu 17,C   2)                  3.0012         0.094296   
     22. B(Cu 17,H  13)                  2.7475         0.080844   
     23. B(Cu 17,H  16)                  1.5258         0.760607   
     24. B(Cu 17,N  12)                  2.0951         0.118441   
     25. B(Cu 17,C  11)                  2.0271         0.164223   
     26. A(C   5,C   0,H   6)          120.1932         0.217209   
     27. A(C   1,C   0,H   6)          119.7704         0.217202   
     28. A(C   1,C   0,C   5)          120.0334         0.158764   
     29. A(C   2,C   1,H   8)          119.8576         0.215637   
     30. A(C   0,C   1,H   8)          120.1394         0.215826   
     31. A(C   0,C   1,C   2)          120.0023         0.154395   
     32. A(C   3,C   2,C  11)          121.6148         0.058425   
     33. A(C   1,C   2,C   3)          119.7483         0.139604   
     34. A(C   1,C   2,C  11)          118.6362         0.158380   
     35. A(C   4,C   3,H   9)          119.8921         0.160049   
     36. A(C   2,C   3,H   9)          119.9241         0.093079   
     37. A(C   2,C   3,C   4)          120.1437         0.145734   
     38. A(C   3,C   4,H  10)          119.6959         0.216446   
     39. A(C   3,C   4,C   5)          120.0499         0.154982   
     40. A(C   5,C   4,H  10)          120.2425         0.216174   
     41. A(C   0,C   5,C   4)          120.0109         0.159041   
     42. A(C   4,C   5,H   7)          119.9149         0.217078   
     43. A(C   0,C   5,H   7)          120.0677         0.217161   
     44. A(H  15,C  11,Cu 17)          114.6213         0.037856   
     45. A(N  12,C  11,Cu 17)           72.5283         0.028458   
     46. A(C   2,C  11,Cu 17)          116.8854         0.040711   
     47. A(N  12,C  11,H  15)          113.4017         0.035700   
     48. A(C   2,C  11,H  15)          114.9029         0.072358   
     49. A(C   2,C  11,N  12)          117.8960         0.042431   
     50. A(H  14,N  12,Cu 17)          113.6800         0.029551   
     51. A(H  13,N  12,Cu 17)          120.3877         0.030126   
     52. A(C  11,N  12,Cu 17)           67.3584         0.029565   
     53. A(H  13,N  12,H  14)          114.4023         0.065568   
     54. A(C  11,N  12,H  14)          116.1044         0.039634   
     55. A(C  11,N  12,H  13)          116.9898         0.037666   
     56. A(C  11,Cu 17,N  12)           40.1133         0.034570   
     57. A(N  12,Cu 17,H  16)           98.3173         0.073637   
     58. A(C  11,Cu 17,H  16)           58.4771         0.048401   
     59. D(H   8,C   1,C   0,C   5)    179.4781         0.007360   
     60. D(C   2,C   1,C   0,H   6)    179.8156         0.007479   
     61. D(C   2,C   1,C   0,C   5)     -0.8126         0.008722   
     62. D(H   8,C   1,C   0,H   6)      0.1064         0.004840   
     63. D(C   3,C   2,C   1,H   8)    179.5566         0.006369   
     64. D(C  11,C   2,C   1,C   0)   -179.8533         0.007496   
     65. D(C   3,C   2,C   1,C   0)     -0.1535         0.007570   
     66. D(C  11,C   2,C   1,H   8)     -0.1433         0.005889   
     67. D(H   9,C   3,C   2,C  11)     -1.8101         0.005575   
     68. D(C   4,C   3,C   2,C  11)   -179.5047         0.009273   
     69. D(H   9,C   3,C   2,C   1)    178.4992         0.007488   
     70. D(C   4,C   3,C   2,C   1)      0.8047         0.008166   
     71. D(H  10,C   4,C   3,C   2)    178.2742         0.008437   
     72. D(C   5,C   4,C   3,H   9)   -178.1825         0.007840   
     73. D(C   5,C   4,C   3,C   2)     -0.4872         0.008970   
     74. D(H  10,C   4,C   3,H   9)      0.5789         0.005187   
     75. D(H   7,C   5,C   4,H  10)     -0.1657         0.005043   
     76. D(H   7,C   5,C   4,C   3)    178.5889         0.007433   
     77. D(C   0,C   5,C   4,C   3)     -0.4818         0.008532   
     78. D(H   7,C   5,C   0,H   6)      1.4324         0.005023   
     79. D(H   7,C   5,C   0,C   1)   -177.9366         0.007895   
     80. D(C   4,C   5,C   0,H   6)   -179.4983         0.007365   
     81. D(C   4,C   5,C   0,C   1)      1.1327         0.008865   
     82. D(C   0,C   5,C   4,H  10)   -179.2364         0.007456   
     83. D(Cu 17,C  11,C   2,C   1)   -152.8914         0.019105   
     84. D(H  15,C  11,C   2,C   3)    166.0367         0.022764   
     85. D(H  15,C  11,C   2,C   1)    -14.2693         0.017643   
     86. D(N  12,C  11,C   2,C   3)    -56.1273         0.020325   
     87. D(N  12,C  11,C   2,C   1)    123.5666         0.017138   
     88. D(H  13,N  12,C  11,H  15)    136.3979         0.039339   
     89. D(H  13,N  12,C  11,C   2)     -2.0413         0.047037   
     90. D(H  14,N  12,C  11,Cu 17)    106.2732         0.029788   
     91. D(H  14,N  12,C  11,H  15)     -3.5853         0.038945   
     92. D(H  14,N  12,C  11,C   2)   -142.0245         0.046440   
     93. D(H  13,N  12,C  11,Cu 17)   -113.7436         0.033133   
     94. D(H  16,Cu 17,N  12,H  14)   -103.2671         0.031104   
     95. D(H  16,Cu 17,N  12,H  13)    115.4594         0.030158   
     96. D(C  11,Cu 17,N  12,H  14)   -109.7341         0.041346   
     97. D(C  11,Cu 17,N  12,H  13)    108.9924         0.042891   
     98. D(H  16,Cu 17,C  11,H  15)    -64.2005         0.023682   
     99. D(H  16,Cu 17,C  11,N  12)   -172.4876         0.010408   
    100. D(H  16,Cu 17,N  12,C  11)      6.4670         0.007255   
    101. D(H  16,Cu 17,C  11,C   2)     74.5358         0.027953   
    102. D(N  12,Cu 17,C  11,H  15)    108.2871         0.038614   
    103. D(N  12,Cu 17,C  11,C   2)   -112.9765         0.048841   
    -----------------------------------------------------------------

Number of atoms                         .... 18
Number of degrees of freedom            .... 103


         *************************************************************
         *                GEOMETRY OPTIMIZATION CYCLE   1            *
         *************************************************************


           ************************************************************
           *        Program running with 32 parallel MPI-processes    *
           *              working on a common directory               *
           ************************************************************
------------------------------------------------------------------------------
                             ORCA STARTUP CALCULATIONS
                           -- RI-GTO INTEGRALS CHOSEN --
------------------------------------------------------------------------------
------------------------------------------------------------------------------
                   ___                                                        
                  /   \      - P O W E R E D   B Y -                         
                 /     \                                                     
                 |  |  |   _    _      __       _____    __    __             
                 |  |  |  | |  | |    /  \     |  _  \  |  |  /  |          
                  \  \/   | |  | |   /    \    | | | |  |  | /  /          
                 / \  \   | |__| |  /  /\  \   | |_| |  |  |/  /          
                |  |  |   |  __  | /  /__\  \  |    /   |      \           
                |  |  |   | |  | | |   __   |  |    \   |  |\   \          
                \     /   | |  | | |  |  |  |  | |\  \  |  | \   \       
                 \___/    |_|  |_| |__|  |__|  |_| \__\ |__|  \__/        
                                                                              
                      - O R C A' S   B I G   F R I E N D -                    
                                      &                                       
                       - I N T E G R A L  F E E D E R -                       
                                                                              
 v1 FN, 2020, v2 2021, v3 2022-2024                                           
------------------------------------------------------------------------------


----------------------
SHARK INTEGRAL PACKAGE
----------------------

Number of atoms                             ...     18
Number of basis functions                   ...    347
Number of shells                            ...    139
Maximum angular momentum                    ...      3
Integral batch strategy                     ... SHARK/LIBINT Hybrid
RI-J (if used) integral strategy            ... SPLIT-RIJ (Revised 2003 algorithm where possible)
Printlevel                                  ...      1
Contraction scheme used                     ... SEGMENTED contraction
Prescreening option                         ... SCHWARTZ
   Thresh                                   ... 2.500e-11
   Tcut                                     ... 2.500e-12
   Tpresel                                  ... 2.500e-12 
Coulomb Range Separation                    ... NOT USED
Exchange Range Separation                   ... NOT USED
Multipole approximations                    ... NOT USED
Finite Nucleus Model                        ... NOT USED
CABS basis                                  ... NOT available
Auxiliary Coulomb fitting basis             ... AVAILABLE
   # of basis functions in Aux-J            ...    582
   # of shells in Aux-J                     ...    188
   Maximum angular momentum in Aux-J        ...      4
Auxiliary J/K fitting basis                 ... NOT available
Auxiliary Correlation fitting basis         ... NOT available
Auxiliary 'external' fitting basis          ... NOT available

Checking pre-screening integrals            ... done (  0.0 sec) Dimension = 139
   => SHARK Basis and OBASIS are compatible. Storing Pre-screening
Shell pair information
Shell pair cut-off parameter TPreSel        ...   2.5e-12
Total number of shell pairs                 ...      9730
Shell pairs after pre-screening             ...      8641
Total number of primitive shell pairs       ...     31637
Primitive shell pairs kept                  ...     20289
          la=0 lb=0:   2309 shell pairs
          la=1 lb=0:   2402 shell pairs
          la=1 lb=1:    646 shell pairs
          la=2 lb=0:   1313 shell pairs
          la=2 lb=1:    686 shell pairs
          la=2 lb=2:    199 shell pairs
          la=3 lb=0:    578 shell pairs
          la=3 lb=1:    304 shell pairs
          la=3 lb=2:    164 shell pairs
          la=3 lb=3:     40 shell pairs

Checking whether 4 symmetric matrices of dimension 347 fit in memory
:Max Core in MB      =   2000.00
 MB in use           =     15.31
 MB left             =   1984.69
 MB needed           =      1.84
 Data fit in memory  = YES
Calculating RI/J V-Matrix + Cholesky decomp.... done (  0.2 sec)
Calculating Nuclear repulsion               ... done (  0.0 sec) ENN=    615.495229389424 Eh

Diagonalization of the overlap matrix:
Smallest eigenvalue                        ... 8.441e-06
Time for diagonalization                   ...    0.013 sec
Threshold for overlap eigenvalues          ... 1.000e-07
Number of eigenvalues below threshold      ... 0
Time for construction of square roots      ...    0.009 sec
Total time needed                          ...    0.025 sec

-------------------
DFT GRID GENERATION
-------------------

General Integration Accuracy     IntAcc      ... 4.388
Radial Grid Type                 RadialGrid  ... OptM3 with GC (2021)
Angular Grid (max. ang.)         AngularGrid ... 4 (Lebedev-302)
Angular grid pruning method      GridPruning ... 4 (adaptive)
Weight generation scheme         WeightScheme... mBecke (2022)
Basis function cutoff            BFCut       ... 1.0000e-11
Integration weight cutoff        WCut        ... 1.0000e-14
Partially contracted basis set               ... off
Rotationally invariant grid construction     ... off
Angular grids for H and He will be reduced by one unit
Core-polarized basis detected: some atoms will have their core
                               angular grid increased.

Total number of grid points                  ...    88088
Total number of batches                      ...     1386
Average number of points per batch           ...       63
Average number of grid points per atom       ...     4894

--------------------
COSX GRID GENERATION
--------------------

GRIDX 1
-------
General Integration Accuracy     IntAcc      ... 3.816
Radial Grid Type                 RadialGrid  ... OptM3 with GC (2021)
Angular Grid (max. ang.)         AngularGrid ... 1 (Lebedev-50)
Angular grid pruning method      GridPruning ... 4 (adaptive)
Weight generation scheme         WeightScheme... mBecke (2022)
Basis function cutoff            BFCut       ... 1.0000e-11
Integration weight cutoff        WCut        ... 1.0000e-14
Partially contracted basis set               ... on
Rotationally invariant grid construction     ... off
Angular grids for H and He will be reduced by one unit
Core-polarized basis detected: some atoms will have their core
                               angular grid increased.

Total number of grid points                  ...    15713
Total number of batches                      ...      132
Average number of points per batch           ...      119
Average number of grid points per atom       ...      873
UseSFitting                                  ... on

GRIDX 2
-------
General Integration Accuracy     IntAcc      ... 4.020
Radial Grid Type                 RadialGrid  ... OptM3 with GC (2021)
Angular Grid (max. ang.)         AngularGrid ... 2 (Lebedev-110)
Angular grid pruning method      GridPruning ... 4 (adaptive)
Weight generation scheme         WeightScheme... mBecke (2022)
Basis function cutoff            BFCut       ... 1.0000e-11
Integration weight cutoff        WCut        ... 1.0000e-14
Partially contracted basis set               ... on
Rotationally invariant grid construction     ... off
Angular grids for H and He will be reduced by one unit
Core-polarized basis detected: some atoms will have their core
                               angular grid increased.

Total number of grid points                  ...    27017
Total number of batches                      ...      220
Average number of points per batch           ...      122
Average number of grid points per atom       ...     1501
UseSFitting                                  ... on

GRIDX 3
-------
General Integration Accuracy     IntAcc      ... 4.338
Radial Grid Type                 RadialGrid  ... OptM3 with GC (2021)
Angular Grid (max. ang.)         AngularGrid ... 3 (Lebedev-194)
Angular grid pruning method      GridPruning ... 4 (adaptive)
Weight generation scheme         WeightScheme... mBecke (2022)
Basis function cutoff            BFCut       ... 1.0000e-11
Integration weight cutoff        WCut        ... 1.0000e-14
Partially contracted basis set               ... on
Rotationally invariant grid construction     ... off
Angular grids for H and He will be reduced by one unit
Core-polarized basis detected: some atoms will have their core
                               angular grid increased.

Total number of grid points                  ...    52278
Total number of batches                      ...      415
Average number of points per batch           ...      125
Average number of grid points per atom       ...     2904
UseSFitting                                  ... on
Grids setup in   1.2 sec
Initializing property integral containers    ... done (  0.0 sec)

SHARK setup successfully completed in   1.6 seconds

Maximum memory used throughout the entire STARTUP-calculation: 34.4 MB


           ************************************************************
           *        Program running with 32 parallel MPI-processes    *
           *              working on a common directory               *
           ************************************************************
-------------------------------------------------------------------------------
                                 ORCA GUESS
                   Start orbitals & Density for SCF / CASSCF
-------------------------------------------------------------------------------

------------
SCF SETTINGS
------------
Hamiltonian:
 Density Functional     Method          .... DFT(GTOs)
 Exchange Functional    Exchange        .... B88
   X-Alpha parameter    XAlpha          ....  0.666667
   Becke's b parameter  XBeta           ....  0.004200
 Correlation Functional Correlation     .... LYP
 LDA part of GGA corr.  LDAOpt          .... VWN-5
 Gradients option       PostSCFGGA      .... off
 Hybrid DFT is turned on
   Fraction HF Exchange ScalHFX         ....  0.200000
   Scaling of DF-GGA-X  ScalDFX         ....  0.720000
   Scaling of DF-GGA-C  ScalDFC         ....  0.810000
   Scaling of DF-LDA-C  ScalLDAC        ....  1.000000
   Perturbative correction              ....  0.000000
   NL short-range parameter             ....  4.800000
 RI-approximation to the Coulomb term is turned on
   Number of AuxJ basis functions       .... 582
   RIJ-COSX (HFX calculated with COS-X)).... on


General Settings:
 Integral files         IntName         .... orca
 Hartree-Fock type      HFTyp           .... RHF
 Total Charge           Charge          ....    1
 Multiplicity           Mult            ....    1
 Number of Electrons    NEL             ....   86
 Basis Dimension        Dim             ....  347
 Nuclear Repulsion      ENuc            ....    615.4952293894 Eh

Convergence Acceleration:
 AO-DIIS                CNVDIIS         .... on
   Start iteration      DIISMaxIt       ....    12
   Startup error        DIISStart       ....  0.200000
   # of expansion vecs  DIISMaxEq       ....     5
   Bias factor          DIISBfac        ....   1.050
   Max. coefficient     DIISMaxC        ....  10.000
 MO-DIIS                CNVKDIIS        .... off
 Trust-Rad. Augm. Hess. CNVTRAH         .... auto
   Auto Start mean grad. ratio tolernc. ....  1.125000
   Auto Start start iteration           ....     1
   Auto Start num. interpolation iter.  ....    10
   Max. Number of Micro iterations      ....    24
   Max. Number of Macro iterations      .... Maxiter - #DIIS iter
   Number of Davidson start vectors     ....     2
   Converg. threshold    (grad. norm)   ....   1.000e-05
   Grad. Scal. Fac. for Micro threshold ....   0.100
   Minimum threshold for Micro iter.    ....   1.000e-02
   NR start threshold (gradient norm)   ....   1.000e-04
   Initial trust radius                 ....   0.400
   Minimum AH scaling param. (alpha)    ....   1.000
   Maximum AH scaling param. (alpha)    .... 1000.000
   Quad. conv. algorithm                .... NR
   White noise on init. David. guess    .... on
   Maximum white noise                  ....   0.010
   Pseudo random numbers                .... off
   Inactive MOs                         .... canonical
   Orbital update algorithm             .... Taylor
   Preconditioner                       .... Diag
   Full preconditioner red. dimension   ....   250
 SOSCF                 CNVSOSCF           .... on
   Start iteration     SOSCFMaxIt         ....   150
   Startup grad/error  SOSCFStart         ....  0.003300
   Hessian update      SOSCFHessUp        .... L-BFGS
   Autom. constraints  SOSCFAutoConstrain .... off
 Level Shifting         CNVShift        .... on
   Level shift para.    LevelShift      ....    0.2500
   Turn off err/grad.   ShiftErr        ....    0.0010
 Zerner damping         CNVZerner       .... off
 Static damping         CNVDamp         .... on
   Fraction old density DampFac         ....    0.7000
   Max. Damping (<1)    DampMax         ....    0.9800
   Min. Damping (>=0)   DampMin         ....    0.0000
   Turn off err/grad.   DampErr         ....    0.1000

SCF Procedure:
 Maximum # iterations   MaxIter         ....  2000
 SCF integral mode      SCFMode         .... Direct
   Integral package                     .... SHARK and LIBINT hybrid scheme
 Reset frequency        DirectResetFreq ....    15
 Integral Threshold     Thresh          ....  2.500e-11 Eh
 Primitive CutOff       TCut            ....  2.500e-12 Eh

Convergence Tolerance:
 Convergence Check Mode ConvCheckMode   .... Total+1el-Energy
 Convergence forced     ConvForced      .... 0
 Energy Change          TolE            ....  1.000e-08 Eh
 1-El. energy change                    ....  1.000e-05 Eh
 Orbital Gradient       TolG            ....  1.000e-05
 Orbital Rotation angle TolX            ....  1.000e-05
 DIIS Error             TolErr          ....  5.000e-07

---------------------
INITIAL GUESS: MOREAD
---------------------
Guess MOs are being read from file: orca.gbw
Input Geometry matches current geometry (good)
Input basis set matches current basis set (good)
Occupation numbers will be reassigned to an Aufbau configuration
MOs were renormalized
MOs were reorthogonalized (Cholesky)
                      ------------------
                      INITIAL GUESS DONE (   0.1 sec)
                      ------------------
             **** ENERGY FILE WAS UPDATED (orca.en.tmp) ****
Finished Guess after   1.6 sec
Maximum memory used throughout the entire GUESS-calculation: 20.7 MB


           ************************************************************
           *        Program running with 32 parallel MPI-processes    *
           *              working on a common directory               *
           ************************************************************

-------------------------------------------------------------------------------------------
                                      ORCA LEAN-SCF
                              memory conserving SCF solver
-------------------------------------------------------------------------------------------

--------------------
CPCM SOLVATION MODEL
--------------------
CPCM parameters:
  Epsilon                                         ...       6.0200
  Refrac                                          ...       1.3723
  Rsolv                                           ...       1.3000
  Surface type                                    ... GAUSSIAN VDW
  Discretization scheme                           ... Constant charge density
    Threshold for H atoms                         ...       5.0000 (charges/Ang^2)
    Threshold for non-H atoms                     ...       5.0000 (charges/Ang^2)
  Epsilon function type                           ...         CPCM
Solvent:                                          ... CUSTOM
Radii:
  Scheme                                          ... Element-dependent radii
  Radius for C  used is    3.8550 Bohr (=   2.0400 Ang.)
  Radius for H  used is    2.4944 Bohr (=   1.3200 Ang.)
  Radius for N  used is    3.5149 Bohr (=   1.8600 Ang.)
  Radius for Cu used is    3.1747 Bohr (=   1.6800 Ang.)
Calculating surface                               ...        done! (  0.0s)
Cavity surface points                             ...         1654
Cavity Volume                                     ...    1086.1737
Cavity Surface-area                               ...     616.7465
Calculating surface distance matrix               ...        done! (  0.0s)
Performing Cholesky decomposition & store         ...        done! (  0.1s)
Overall time for CPCM initialization              ...                 0.1s

----------------------------------------D-I-I-S--------------------------------------------
Iteration    Energy (Eh)           Delta-E    RMSDP     MaxDP     DIISErr   Damp  Time(sec)
-------------------------------------------------------------------------------------------
               ***  Starting incremental Fock matrix formation  ***
                              *** Initializing SOSCF ***
---------------------------------------S-O-S-C-F--------------------------------------
Iteration    Energy (Eh)           Delta-E    RMSDP     MaxDP     MaxGrad    Time(sec)
--------------------------------------------------------------------------------------
    1    -1967.0846045638159012     0.00e+00  7.62e-06  4.13e-05  2.22e-06     1.4
               *** Restarting incremental Fock matrix formation ***
    2    -1967.0846045641587807    -3.43e-10  2.56e-06  1.17e-05  4.20e-06     1.1
    3    -1967.0846045545376910     9.62e-09  3.21e-06  1.65e-05  1.04e-05     0.7
                 **** Energy Check signals convergence ****

               *****************************************************
               *                     SUCCESS                       *
               *           SCF CONVERGED AFTER   3 CYCLES          *
               *****************************************************

Recomputing exchange energy using gridx3       ... done (    1.263 sec)
Old exchange energy                            :    -22.290693945 Eh
New exchange energy                            :    -22.290685020 Eh
Exchange energy change after final integration :      0.000008925 Eh
Total energy after final integration           :  -1967.084595644 Eh
             **** ENERGY FILE WAS UPDATED (orca.en.tmp) ****

----------------
TOTAL SCF ENERGY
----------------

Total Energy       :      -1967.08459564409827 Eh          -53527.09311 eV

Components:
Nuclear Repulsion  :        615.49522938942437 Eh           16748.47667 eV
Electronic Energy  :      -2582.48388743839814 Eh          -70272.95919 eV
One Electron Energy:      -3934.59842973744526 Eh         -107065.86640 eV
Two Electron Energy:       1352.11454229904712 Eh           36792.90721 eV
CPCM Dielectric    :         -0.09594652021835 Eh              -2.61084 eV

Virial components:
Potential Energy   :      -3930.22552774197038 Eh         -106946.87368 eV
Kinetic Energy     :       1963.14093209787211 Eh           53419.78057 eV
Virial Ratio       :          2.00200885401641

DFT components:
N(Alpha)           :       43.000106435513 electrons
N(Beta)            :       43.000106435513 electrons
N(Total)           :       86.000212871027 electrons
E(X)               :      -88.849634840635 Eh       
E(C)               :       -3.857614776716 Eh       
E(XC)              :      -92.707249617352 Eh       

CPCM Solvation Model Properties:
Surface-charge          :         -1.03161134677237
Corrected charge        :         -1.00000000000000
Outlying charge corr.   :          0.00006149832952 Eh               0.00167 eV
Free-energy (cav+disp)  :  This term is not implemented in the current solvation scheme

---------------
SCF CONVERGENCE
---------------

  Last Energy change         ...   -9.6211e-09  Tolerance :   1.0000e-08
  Last MAX-Density change    ...    1.6510e-05  Tolerance :   1.0000e-07
  Last RMS-Density change    ...    3.2070e-06  Tolerance :   5.0000e-09
  Last DIIS Error            ...    1.4533e-05  Tolerance :   5.0000e-07
  Last Orbital Gradient      ...    1.0434e-05  Tolerance :   1.0000e-05
  Last Orbital Rotation      ...    1.0469e-05  Tolerance :   1.0000e-05


----------------
ORBITAL ENERGIES
----------------

  NO   OCC          E(Eh)            E(eV) 
   0   2.0000    -323.072074     -8791.2381 
   1   2.0000     -38.868080     -1057.6542 
   2   2.0000     -34.072983      -927.1730 
   3   2.0000     -34.072514      -927.1602 
   4   2.0000     -34.071968      -927.1454 
   5   2.0000     -14.394904      -391.7052 
   6   2.0000     -10.304968      -280.4124 
   7   2.0000     -10.222935      -278.1802 
   8   2.0000     -10.207565      -277.7620 
   9   2.0000     -10.207319      -277.7553 
  10   2.0000     -10.201994      -277.6104 
  11   2.0000     -10.201465      -277.5960 
  12   2.0000     -10.200863      -277.5796 
  13   2.0000      -4.358351      -118.5968 
  14   2.0000      -2.857114       -77.7460 
  15   2.0000      -2.853007       -77.6343 
[...]
     41      -0.000102   0.000388  -0.004688  -0.000468   0.553128   0.535269
     42       0.000190  -0.000170   0.000611  -0.000113   0.107389  -0.095189
     43       0.000554  -0.000814   0.009237   0.000691   0.686878  -0.708934
     44       0.000364   0.000290  -0.003781  -0.000664  -0.016508   0.009902
     45      -0.000223   0.001862  -0.034782  -0.004757   0.000034   0.001639
     46      -0.024705   0.034555  -0.633244  -0.073309   0.002487  -0.009161
     47       0.031140  -0.041434   0.754747   0.086513   0.004969   0.012896
     48       0.001127  -0.000337   0.002042  -0.000611  -0.003836   0.000970
     49      -0.000099   0.000339  -0.005564  -0.000585   0.005182   0.001103
     50       0.000494  -0.000575   0.008581   0.001001   0.005150  -0.000270
     51       0.000010   0.000002   0.000013  -0.000004  -0.000006   0.000002
     52       0.000001   0.000005  -0.000034  -0.000004  -0.000020   0.000011
     53      -0.000008   0.000003  -0.000083  -0.000009  -0.000033   0.000001


-----------
IR SPECTRUM
-----------

 Mode   freq       eps      Int      T**2         TX        TY        TZ
       cm**-1   L/(mol*cm) km/mol    a.u.
----------------------------------------------------------------------------
  7:     43.73   0.000378    1.91  0.002701  (-0.020703  0.042372 -0.021830)
  8:     79.43   0.000343    1.73  0.001348  ( 0.003458 -0.036477  0.002295)
  9:    163.53   0.001968    9.95  0.003756  (-0.038308 -0.044902  0.016497)
 10:    232.66   0.002777   14.04  0.003725  ( 0.049980 -0.004181 -0.034782)
 11:    265.21   0.000456    2.31  0.000537  (-0.003366 -0.001752  0.022854)
 12:    358.14   0.007950   40.17  0.006927  ( 0.066099  0.001954 -0.050536)
 13:    409.02   0.001706    8.62  0.001301  ( 0.033409  0.012371 -0.005671)
 14:    422.10   0.016865   85.23  0.012468  (-0.100140 -0.030169  0.039114)
 15:    490.91   0.007585   38.33  0.004821  ( 0.068150 -0.004006 -0.012684)
 16:    525.84   0.009757   49.31  0.005790  ( 0.054431  0.023103 -0.047894)
 17:    581.02   0.006114   30.90  0.003284  (-0.033141  0.040436  0.023461)
 18:    632.00   0.012259   61.95  0.006053  (-0.048080 -0.045752 -0.040600)
 19:    635.53   0.021478  108.54  0.010546  ( 0.065422  0.050698  0.060795)
 20:    695.36   0.043388  219.26  0.019471  ( 0.123280 -0.008067  0.064873)
 21:    710.30   0.027936  141.18  0.012273  (-0.085449  0.068837  0.015277)
 22:    792.17   0.002446   12.36  0.000964  ( 0.005260 -0.016242 -0.025927)
 23:    807.88   0.004012   20.28  0.001550  (-0.037974  0.001281  0.010303)
 24:    856.12   0.000047    0.24  0.000017  (-0.002002 -0.002930 -0.002091)
 25:    945.68   0.000384    1.94  0.000127  (-0.006912  0.005345  0.007098)
 26:    988.82   0.000050    0.25  0.000016  ( 0.002162  0.001361  0.003045)
 27:   1016.42   0.000027    0.13  0.000008  (-0.001481 -0.002066 -0.001312)
 28:   1021.70   0.000388    1.96  0.000118  ( 0.010740  0.001567  0.000835)
 29:   1048.31   0.001823    9.21  0.000543  ( 0.007208  0.020652  0.008009)
 30:   1092.98   0.008129   41.08  0.002321  (-0.013043  0.042323  0.018963)
 31:   1103.06   0.005891   29.77  0.001667  ( 0.009100 -0.010988 -0.038249)
 32:   1141.82   0.005802   29.32  0.001586  (-0.035679  0.016623  0.006030)
 33:   1179.32   0.002762   13.96  0.000731  (-0.014483  0.010331  0.020357)
 34:   1182.87   0.000278    1.40  0.000073  (-0.007707  0.001812  0.003250)
 35:   1204.15   0.000792    4.00  0.000205  (-0.008812 -0.010012 -0.005221)
 36:   1245.66   0.016789   84.84  0.004206  (-0.033480 -0.046223 -0.030796)
 37:   1336.07   0.002088   10.55  0.000488  (-0.016359 -0.011509 -0.009358)
 38:   1366.11   0.001199    6.06  0.000274  (-0.004676 -0.015356  0.004017)
 39:   1432.50   0.011397   57.60  0.002483  ( 0.030277  0.037315  0.013181)
 40:   1492.44   0.004204   21.24  0.000879  (-0.014251  0.003706 -0.025732)
 41:   1533.20   0.000279    1.41  0.000057  ( 0.003965  0.003482 -0.005384)
 42:   1619.99   0.017755   89.73  0.003420  ( 0.000367  0.030971  0.049608)
 43:   1623.13   0.000876    4.42  0.000168  ( 0.005719  0.010024  0.005928)
 44:   1639.59   0.002742   13.85  0.000522  (-0.016020 -0.015060 -0.006196)
 45:   1785.05   0.007849   39.66  0.001372  ( 0.003513  0.027018  0.025096)
 46:   3167.33   0.001110    5.61  0.000109  ( 0.007508  0.004702  0.005555)
 47:   3174.16   0.000370    1.87  0.000036  (-0.001809 -0.004533  0.003541)
 48:   3183.33   0.000420    2.12  0.000041  (-0.003577 -0.005206 -0.001149)
 49:   3192.63   0.002833   14.31  0.000277  (-0.003274  0.006474 -0.014975)
 50:   3198.78   0.000384    1.94  0.000038  ( 0.005398 -0.002859 -0.000441)
 51:   3201.44   0.001937    9.79  0.000189  (-0.010775 -0.008384 -0.001552)
 52:   3526.38   0.024799  125.33  0.002195  (-0.016955  0.031361  0.030391)
 53:   3626.88   0.022215  112.27  0.001911  (-0.016470 -0.036653  0.017226)

* The epsilon (eps) is given for a Dirac delta lineshape.
** The dipole moment derivative (T) already includes vibrational overlap.

The first frequency considered to be a vibration is 7
The total number of vibrations considered is 47


--------------------------
THERMOCHEMISTRY AT 298.15K
--------------------------

Temperature         ...   298.15 K
Pressure            ...     1.00 atm
Total Mass          ...   170.71 AMU
Quasi RRHO          ...     True
Cut-Off Frequency   ...     1.00 cm^-1

Throughout the following assumptions are being made:
  (1) The electronic state is orbitally nondegenerate
  (2) There are no thermally accessible electronically excited states
  (3) Hindered rotations indicated by low frequency modes are not
      treated as such but are treated as vibrations and this may
      cause some error
  (4) All equations used are the standard statistical mechanics
      equations for an ideal gas
  (5) All vibrations are strictly harmonic

freq.      43.73  E(vib)   ...       0.53 
freq.      79.43  E(vib)   ...       0.49 
freq.     163.53  E(vib)   ...       0.39 
freq.     232.66  E(vib)   ...       0.32 
freq.     265.21  E(vib)   ...       0.29 
freq.     358.14  E(vib)   ...       0.22 
freq.     409.02  E(vib)   ...       0.19 
freq.     422.10  E(vib)   ...       0.18 
freq.     490.91  E(vib)   ...       0.14 
freq.     525.84  E(vib)   ...       0.13 
freq.     581.02  E(vib)   ...       0.11 
freq.     632.00  E(vib)   ...       0.09 
freq.     635.53  E(vib)   ...       0.09 
freq.     695.36  E(vib)   ...       0.07 
freq.     710.30  E(vib)   ...       0.07 
freq.     792.17  E(vib)   ...       0.05 
freq.     807.88  E(vib)   ...       0.05 
freq.     856.12  E(vib)   ...       0.04 
freq.     945.68  E(vib)   ...       0.03 
freq.     988.82  E(vib)   ...       0.02 
freq.    1016.42  E(vib)   ...       0.02 
freq.    1021.70  E(vib)   ...       0.02 
freq.    1048.31  E(vib)   ...       0.02 
freq.    1092.98  E(vib)   ...       0.02 
freq.    1103.06  E(vib)   ...       0.02 
freq.    1141.82  E(vib)   ...       0.01 
freq.    1179.32  E(vib)   ...       0.01 
freq.    1182.87  E(vib)   ...       0.01 
freq.    1204.15  E(vib)   ...       0.01 
freq.    1245.66  E(vib)   ...       0.01 
freq.    1336.07  E(vib)   ...       0.01 
freq.    1366.11  E(vib)   ...       0.01 
freq.    1432.50  E(vib)   ...       0.00 
freq.    1492.44  E(vib)   ...       0.00 
freq.    1533.20  E(vib)   ...       0.00 
freq.    1619.99  E(vib)   ...       0.00 
freq.    1623.13  E(vib)   ...       0.00 
freq.    1639.59  E(vib)   ...       0.00 
freq.    1785.05  E(vib)   ...       0.00 
freq.    3167.33  E(vib)   ...       0.00 
freq.    3174.16  E(vib)   ...       0.00 
freq.    3183.33  E(vib)   ...       0.00 
freq.    3192.63  E(vib)   ...       0.00 
freq.    3198.78  E(vib)   ...       0.00 
freq.    3201.44  E(vib)   ...       0.00 
freq.    3526.38  E(vib)   ...       0.00 
freq.    3626.88  E(vib)   ...       0.00 

------------
INNER ENERGY
------------

The inner energy is: U= E(el) + E(ZPE) + E(vib) + E(rot) + E(trans)
    E(el)   - is the total energy from the electronic structure calculation
              = E(kin-el) + E(nuc-el) + E(el-el) + E(nuc-nuc)
    E(ZPE)  - the the zero temperature vibrational energy from the frequency calculation
    E(vib)  - the the finite temperature correction to E(ZPE) due to population
              of excited vibrational states
    E(rot)  - is the rotational thermal energy
    E(trans)- is the translational thermal energy

Summary of contributions to the inner energy U:
Electronic energy                ...  -1967.12211080 Eh
Zero point energy                ...      0.14117970 Eh      88.59 kcal/mol
Thermal vibrational correction   ...      0.00586219 Eh       3.68 kcal/mol
Thermal rotational correction    ...      0.00141627 Eh       0.89 kcal/mol
Thermal translational correction ...      0.00141627 Eh       0.89 kcal/mol
-----------------------------------------------------------------------
Total thermal energy                  -1966.97223637 Eh


Summary of corrections to the electronic energy:
(perhaps to be used in another calculation)
Total thermal correction                  0.00869473 Eh       5.46 kcal/mol
Non-thermal (ZPE) correction              0.14117970 Eh      88.59 kcal/mol
-----------------------------------------------------------------------
Total correction                          0.14987443 Eh      94.05 kcal/mol


--------
ENTHALPY
--------

The enthalpy is H = U + kB*T
                kB is Boltzmann's constant
Total thermal energy              ...  -1966.97223637 Eh 
Thermal Enthalpy correction       ...      0.00094421 Eh       0.59 kcal/mol
-----------------------------------------------------------------------
Total Enthalpy                    ...  -1966.97129216 Eh


Note: Only C1 symmetry has been detected, increase convergence thresholds 
      if your molecule has a higher symmetry. Symmetry factor of 1.0 is   
      used for the rotational entropy correction. 
 

Note: Rotational entropy computed according to Herzberg 
Infrared and Raman Spectra, Chapter V,1, Van Nostrand Reinhold, 1945 
Point Group:  C1, Symmetry Number:   1  
Rotational constants in cm-1:     0.104164     0.020558     0.019603 

Vibrational entropy computed according to the QRRHO of S. Grimme
Chem.Eur.J. 2012 18 9955 using a reference frequency of 100.0 cm-1


-------
ENTROPY
-------

The entropy contributions are T*S = T*(S(el)+S(vib)+S(rot)+S(trans))
     S(el)   - electronic entropy
     S(vib)  - vibrational entropy
     S(rot)  - rotational entropy
     S(trans)- translational entropy
The entropies will be listed as multiplied by the temperature to get
units of energy

Electronic entropy                ...      0.00000000 Eh      0.00 kcal/mol
Vibrational entropy               ...      0.00980592 Eh      6.15 kcal/mol
Rotational entropy                ...      0.01426870 Eh      8.95 kcal/mol
Translational entropy             ...      0.01962863 Eh     12.32 kcal/mol
-----------------------------------------------------------------------
Final entropy term                ...      0.04370325 Eh     27.42 kcal/mol

In case the symmetry of your molecule has not been determined correctly
or in case you have a reason to use a different symmetry number we print 
out the resulting rotational entropy values for sn=1,12:

 non-linear molecules -----------------------------------
|  sn= 1 | S(rot)=       0.01426870 Eh      8.95 kcal/mol|
|  sn= 2 | S(rot)=       0.01361425 Eh      8.54 kcal/mol|
|  sn= 3 | S(rot)=       0.01323141 Eh      8.30 kcal/mol|
|  sn= 4 | S(rot)=       0.01295979 Eh      8.13 kcal/mol|
|  sn= 5 | S(rot)=       0.01274910 Eh      8.00 kcal/mol|
|  sn= 6 | S(rot)=       0.01257696 Eh      7.89 kcal/mol|
|  sn= 7 | S(rot)=       0.01243141 Eh      7.80 kcal/mol|
|  sn= 8 | S(rot)=       0.01230533 Eh      7.72 kcal/mol|
|  sn= 9 | S(rot)=       0.01219412 Eh      7.65 kcal/mol|
|  sn=10 | S(rot)=       0.01209464 Eh      7.59 kcal/mol|
|  sn=11 | S(rot)=       0.01200465 Eh      7.53 kcal/mol|
|  sn=12 | S(rot)=       0.01192250 Eh      7.48 kcal/mol|
 linear molecules ---------------------------------------
|  Dinfh | S(rot)=       0.00903839 Eh      5.67 kcal/mol|
|  Cinfv | S(rot)=       0.00969285 Eh      6.08 kcal/mol|
 --------------------------------------------------------


-------------------
GIBBS FREE ENERGY
-------------------

The Gibbs free energy is G = H - T*S

Total enthalpy                    ...  -1966.97129216 Eh 
Total entropy correction          ...     -0.04370325 Eh    -27.42 kcal/mol
-----------------------------------------------------------------------
Final Gibbs free energy         ...  -1967.01499540 Eh

For completeness - the Gibbs free energy minus the electronic energy
G-E(el)                           ...      0.10711539 Eh     67.22 kcal/mol


Maximum memory used throughout the entire PROP-calculation: 110.8 MB

--------------------------------
SUGGESTED CITATIONS FOR THIS RUN
--------------------------------

Below you find a list of papers that are relevant to this ORCA run
We neither can nor want to force you to cite these papers, but we appreciate if you do
You receive ORCA, which is the product of decades of hard work by many enthusiastic individuals, for free
The only thing we kindly ask in return is that you cite our papers,
We deeply appreciate it, if you show your appreciation for ORCA by not just citing the generic ORCA reference.

Please note that relegating all ORCA citations to the supporting information does *not* help us.
SI sections are not indexed - citations you put there will not count into any citation statistics
But we need these citations in order to attract the funding resources that allow us to do what we are doing

Therefore, if you are a happy ORCA user, please consider citing a few of the papers listed below in the main body of your paper

In addition to the list printed below, the program has created the file orca.bibtex that contains the list in bibtex format
You can import this file easily into all common literature databanks and citation aid programs


List of essential papers. We consider these as the minimum necessary citations

  1. Neese, F.
     Software update: the ORCA program system, version 6.0
     WIRES Comput. Molec. Sci. 2025 15(1), e70019
     doi.org/10.1002/wcms.7019

List of papers to cite with high priority. The work reported in these papers was absolutely
necessary for this run to complete.
Our perspective: the developers of density functionals and basis sets usually get cited in chemistry papers
Good! But without the algorithms to do something with them, the functionals or basis sets would not do anything.
Hence, in our opinion, the algorithm design and method developments papers are equally worthy of getting cited

  1. Neese, F.
     An improvement of the resolution of the identity approximation for the formation of the Coulomb matrix
     J. Comp. Chem. 2003 24(14), 1740-1747
     doi.org/10.1002/jcc.10318
  2. Neese, F.; Wennmohs, F.; Hansen, A.; Becker, U.
     Efficient, approximate and parallel Hartree-Fock and hybrid DFT calculations. A 'chain-of-spheres' algorithm for the Hartree-Fock exchange
     Chem. Phys. 2009 356(1-3), 98-109
     doi.org/10.1016/j.chemphys.2008.10.036
  3. Grimme, S.; Antony, J.; Ehrlich, S.; Krieg, H.
     A consistent and accurate ab initio parametrization of density functional dispersion correction (DFT-D) for the 94 elements H-Pu
     J. Chem. Phys. 2010 132 , 154104
     doi.org/10.1063/1.3382344
  4. Grimme, S.; Ehrlich, S.; Goerigk, L.
     Effect of the damping function in dispersion corrected density functional theory
     J. Comput. Chem. 2011 32(7), 1456-1465
     doi.org/10.1002/jcc.21759
  5. Bykov, D.; Petrenko, T.; Izsak, R.; Kossmann, S.; Becker, U.; Valeev, E.; Neese, F.
     Efficient implementation of the analytic second derivatives of Hartree-Fock and hybrid DFT energies: a detailed analysis of different approximations
     Molec. Phys. 2015 113 , 1961-1977
     doi.org/10.1080/00268976.2015.1025114
  6. Garcia-Rates, M.; Neese, F.
     Efficient implementation of the analytical second derivatives of hartree-fock and hybrid DFT energies within the framework of the conductor-like polarizable continuum model
     J. Comput. Chem. 2019 40 , 1816-1828
     doi.org/10.1002/jcc.25833
  7. Garcia-Rates, M.; Neese, F.
     Effect of the Solute Cavity on the Solvation Energy and its Derivatives within the Framework of the Gaussian Charge Scheme
     J. Comput. Chem. 2020 41 , 922-939
     doi.org/10.1002/jcc.26139
  8. Asgeirsson, V.; Orri Birgisson, B.; Björnsson, R.; Becker, U.; Neese, F.; Riplinger, C.; Jonsson, H.
     Nudged Elastic Band Method for Molecular Reactions Using Energy-Weighted Springs Combined with Eigenvector Following
     J. Chem. Theory Comput. 2021 17(8), 4929-4945
     doi.org/10.1021/acs.jctc.1c00462
  9. Helmich-Paris, B.; de Souza, B.; Neese, F.; Izsák, R.
     An improved chain of spheres for exchange algorithm
     J. Chem. Phys. 2021 155(10), 104109
     doi.org/10.1063/5.0058766
 10. Neese, F.
     The SHARK Integral Generation and Digestion System
     J. Comp. Chem. 2022 44(3), 381
     doi.org/10.1002/jcc.26942
 11. Schmerwitz, Y.L.A.; Asgeirsson, V.; Jonsson, H.
     Improved Initialization of Optimal Path Calculations
     Using Sequential Traversal over the
     Image-Dependent Pair Potential Surface
     J. Chem. Theory Comput. 2023 20(1), 155-163
     doi.org/10.1021/acs.jctc.3c01111

List of suggested additional citations. These are papers that are important in the 'surrounding' of 
of this run, or papers that preceded the highly important papers. If you like your results we are grateful for a citation.

  1. Izsak, R.; Neese, F.
     An overlap fitted chain of spheres exchange method
     J. Chem. Phys. 2011 135 , 144105
     doi.org/10.1063/1.3646921
  2. Izsak, R.; Hansen, A.; Neese, F.
     The resolution of identity and chain of spheres approximations for the LPNO-CCSD singles Fock term
     Molec. Phys. 2012 110 , 2413-2417
     doi.org/10.1080/00268976.2012.687466
  3. Neese, F.
     The ORCA program system
     WIRES Comput. Molec. Sci. 2012 2(1), 73-78
     doi.org/10.1002/wcms.81
  4. Izsak, R.; Neese, F.; Klopper, W.
     Robust fitting techniques in the chain of spheres approximation to the Fock exchange: The role of the complementary space
     J. Chem. Phys. 2013 139 , 
     doi.org/10.1063/1.4819264
  5. Neese, F.
     Software update: the ORCA program system, version 4.0
     WIRES Comput. Molec. Sci. 2018 8(1), 1-6
     doi.org/10.1002/wcms.1327
  6. Neese, F.; Wennmohs, F.; Becker, U.; Riplinger, C.
     The ORCA quantum chemistry program package
     J. Chem. Phys. 2020 152(22), 224108
     doi.org/10.1063/5.0004608
  7. Neese, F.
     Software update: The ORCA program system—Version 5.0
     WIRES Comput. Molec. Sci. 2022 12(1), e1606
     doi.org/10.1002/wcms.1606

List of optional additional citations

  1. Neese, F.
     Approximate second-order SCF convergence for spin unrestricted wavefunctions
     Chem. Phys. Lett. 2000 325(1-3), 93-98
     doi.org/10.1016/s0009-2614(00)00662-x

Timings for individual modules:

Sum of individual times          ...    62301.787 sec (=1038.363 min)
Startup calculation              ...      104.447 sec (=   1.741 min)   0.2 %
SCF iterations                   ...      438.452 sec (=   7.308 min)   0.7 %
Property integrals               ...      156.358 sec (=   2.606 min)   0.3 %
SCF Response                     ...       76.378 sec (=   1.273 min)   0.1 %
Property calculations            ...       86.962 sec (=   1.449 min)   0.1 %
SCF Gradient evaluation          ...      165.327 sec (=   2.755 min)   0.3 %
Geometry relaxation              ...        0.261 sec (=   0.004 min)   0.0 %
NEB Iterations                   ...    61273.602 sec (=1021.227 min)  98.3 %
                             ****ORCA TERMINATED NORMALLY****
TOTAL RUN TIME: 0 days 17 hours 16 minutes 38 seconds 751 msec
