
                                 *****************
                                 * O   R   C   A *
                                 *****************

                                            #,                                       
                                            ###                                      
                                            ####                                     
                                            #####                                    
                                            ######                                   
                                           ########,                                 
                                     ,,################,,,,,                         
                               ,,#################################,,                 
                          ,,##########################################,,             
                       ,#########################################, ''#####,          
                    ,#############################################,,   '####,        
                  ,##################################################,,,,####,       
                ,###########''''           ''''###############################       
              ,#####''   ,,,,##########,,,,          '''####'''          '####       
            ,##' ,,,,###########################,,,                        '##       
           ' ,,###''''                  '''############,,,                           
         ,,##''                                '''############,,,,        ,,,,,,###''
      ,#''                                            '''#######################'''  
     '                                                          ''''####''''         
             ,#######,   #######,   ,#######,      ##                                
            ,#'     '#,  ##    ##  ,#'     '#,    #''#        ,####,    ,#,          
            ##       ##  ##   ,#'  ##            #'  '#       #'       ,# #          
            ##       ##  #######   ##           ,######,      #####,      #          
            '#,     ,#'  ##    ##  '#,     ,#' ,#      #,     #,   #      #          
             '#######'   ##     ##  '#######'  #'      '#     '####' #    #          



                #########################################################
                #                        -***-                          #
                #          Department of theory and spectroscopy        #
                #                                                       #
                #                      Frank Neese                      #
                #                                                       #
                #     Directorship, Architecture, Infrastructure        #
                #                    SHARK, DRIVERS                     #
                #        Core code/Algorithms in most modules           #
                #                                                       #
                #        Max Planck Institute fuer Kohlenforschung      #
                #                Kaiser Wilhelm Platz 1                 #
                #                 D-45470 Muelheim/Ruhr                 #
                #                      Germany                          #
                #                                                       #
                #                  All rights reserved                  #
                #                        -***-                          #
                #########################################################


                         Program Version 6.1.0-f.0  -   RELEASE   -


 With contributions from (in alphabetic order):
[Max-Planck-Institut fuer Kohlenforschung]                               
  Daniel Aravena         : Magnetic Suceptibility                        
  Michael Atanasov       : Ab Initio Ligand Field Theory (pilot matlab implementation)
  Alexander A. Auer      : GIAO ZORA, VPT2 properties, NMR spectrum      
  Ute Becker             : All parallelization in ORCA, NUMFREQ, NUMCALC 
  Giovanni Bistoni       : ED, misc. LED, open-shell LED, HFLD           
  Dmytro Bykov           : pre 5.0 version of the SCF Hessian            
  Marcos Casanova-Páez   : Triplet and SCS-CIS(D). UHF-(DLPNO)-IP/EA/STEOM-CCSD. UHF-CVS-IP/STEOM-CCSD   
  Vijay G. Chilkuri      : MRCI spin determinant printing, contributions to CSF-ICE 
  Pauline Colinet        : FMM embedding                                 
  Dipayan Datta          : RHF DLPNO-CCSD density                        
  Achintya Kumar Dutta   : EOM-CC, STEOM-CC                              
  Nicolas Foglia         : Exact transition moments, OPA infrastructure, MCD improvements    
  Dmitry Ganyushin       : Spin-Orbit,Spin-Spin,Magnetic field MRCI      
  Miquel Garcia-Rates    : C-PCM and meta-GGA Hessian, CCSD/C-PCM, Gaussian charge scheme 
  Tiago L. C. Gouveia    : GS-ROHF, GS-ROCIS                             
  Yang Guo               : DLPNO-NEVPT2, F12-NEVPT2, CIM, IAO-localization        
  Andreas Hansen         : Spin unrestricted coupled pair/coupled cluster methods 
  Ingolf Harden          : AUTO-CI MPn and infrastructure                
  Benjamin Helmich-Paris : MC-RPA, TRAH-(SCF,CASSCF), AVAS, COSX integrals, SCF dyn. polar., MC-PDFT, srDFT 
  Lee Huntington         : MR-EOM, pCC                                   
  Robert Izsak           : Overlap fitted RIJCOSX, COSX-SCS-MP3, EOM     
  Riya Kayal             : Wick's Theorem for AUTO-CI, AUTO-CI UHF-CCSDT 
  Emily Kempfer          : AUTO-CI RHF CISDT and CCSDT, approximate NEVPT4
  Christian Kollmar      : KDIIS, OOCD, Brueckner-CCSD(T), CCSD density, CASPT2, CASPT2-K, improved NEVPT2 
  Axel Koslowski         : Symmetry handling                             
  Simone Kossmann        : meta-GGA functionals, TD-DFT gradient, OOMP2, (MP2 Hessian; deprecated post 5.0) 
  Lucas Lang             : DCDCAS, Hyperfine gauge corrections, ICE-SOC+SSC
  Marvin Lechner         : AUTO-CI (C++ implementation), FIC-MRCC        
  Spencer Leger          : CASSCF response                               
  Dagmar Lenk            : GEPOL surface, SMD, ORCA-2-JSON               
  Dimitrios Liakos       : Extrapolation schemes; Compound Job, Property file
  Dimitrios Manganas     : Further ROCIS development; embedding schemes. LFT, Crystal Embedding 
  Dimitrios Pantazis     : SARC Basis sets                               
  Anastasios Papadopoulos: AUTO-CI, single reference methods and gradients 
  Taras Petrenko         : pre 6.0 DFT Hessian and TD-DFT gradient,  ECA, NRVS 
  Petra Pikulova         : Analytic Raman intensities                    
  Peter Pinski           : DLPNO-MP2, DLPNO-MP2 Gradient                 
  Shashank Vittal Rao    : ES-AILFT, MagRelax                            
  Christoph Reimann      : Effective Core Potentials                     
  Marius Retegan         : Local ZFS, SOC                                
  Christoph Riplinger    : Optimizer, TS searches, QM/MM, DLPNO-CCSD(T), (RO)-DLPNO pert. Triples 
  Michael Roemelt        : Original ROCIS implementation, recursive CI coupling coefficients
  Masaaki Saitow         : Open-shell DLPNO-CCSD energy and density      
  Barbara Sandhoefer     : DKH picture change effects                    
  Yorick L. A. Schmerwitz: GMF and freeze-and-release deltaSCF, NEB S-IDPP initial path                    
  Kantharuban Sivalingam : CASSCF convergence/infrastructure, NEVPT2, NEVPT3, NEVPT4(SD), FIC-MRCI and CEPA variants
  Bernardo de Souza      : ESD, SOC TD-DFT                               
  Georgi L. Stoychev     : AutoAux, RI-MP2 NMR, DLPNO-MP2 response, X2C  
  Van Anh Tran           : RI-MP2 g-tensors                              
  Willem Van den Heuvel  : Paramagnetic NMR                              
  Zikuan Wang            : NOTCH, Electric field optimization            
  Frank Wennmohs         : Technical directorship and infrastructure     
  Hang Xu                : AUTO-CI-Response properties                   
                                                                         
[FACCTs GmbH]                                                            
  Markus Bursch, Nicolas Foglia, Miquel Garcia-Rates, Ingolf Harden, Hagen Neugebauer, Anastasios Papadopoulos, 
  Christoph Riplinger, Bernardo de Souza, Georgi L. Stoychev                                                    
                                                                 
  APM, various basis sets, CI-OPT, improved COSX, DLPNO-Multilevel,           
  DOCKER, DRACO, updates on ESD, Fragmentator, GOAT, IRC, LR-CPCM, L-BFGS, MBIS, meta-GGA TD-DFT gradient, ML-optimized integration grids, 
  MM, NACMEs, nearIR, NEB, NEB-TS, NL-DFT gradient (VV10), 2- and 3-layer-ONIOM, interface openCOSMO-RS, QMMM,   
  Crystal-QMMM, RESP, rigid body optimization, SF, symmetry and pop. for TD-DFT, various functionals, SOLVATOR                                   
                                                                         
[Other institutions]                                                     
  V. Asgeirsson          : NEB                                           
  Christoph Bannwarth    : sTDA-DFT, sTD-DFT, PBEh-3c, B97-3c, D3        
  Giovanni Bistoni       : ETS/NOCV, ADLD/ADEX, COVALED                  
  Martin Brehm           : Molecular dynamics                            
  Ronald Cardenas        : ETS/NOCV                                      
  Martina Colucci        : COVALED                                       
  Sebastian Ehlert       : rSCAN, r2SCAN, r2SCAN-3c, D4, dhf basis sets  
  Marvin Friede          : D4 for Fr, Ra, Ac-Lr                          
  Lars Goerigk           : TD-DFT with DH, B97 family of functionals     
  Stefan Grimme          : VdW corrections, initial TS optimization, DFT functionals, gCP, sTDA/sTD-DF 
  Waldemar Hujo          : DFT-NL                                        
  H. Jonsson             : NEB                                           
  Holger Kruse           : gCP                                           
  Marcel Mueller         : wB97X-3c, vDZP basis set                      
  Hagen Neugebauer       : wr2SCAN, Native XTB                           
  Gianluca Regni         : ADLD/ADEX                                     
  Tobias Risthaus        : pre 6.0 range-separated hybrid DFT and stability analysis
  Lukas Wittmann         : regularized MP2, r2SCAN double-hybrids, wr2SCAN        
                                                                         
We gratefully acknowledge several colleagues who have allowed us to      
interface, adapt or use parts of their codes:                            
  Ed Valeev, F. Pavosevic, A. Kumar             : LibInt (2-el integral package), F12 methods 
  Garnet Chan, S. Sharma, J. Yang, R. Olivares  : DMRG                   
  Ulf Ekstrom                                   : XCFun DFT Library      
  Mihaly Kallay                                 : mrcc  (arbitrary order and MRCC methods)
  Frank Weinhold                                : gennbo (NPA and NBO analysis)           
  Simon Mueller                                 : openCOSMO-RS                            
  Christopher J. Cramer and Donald G. Truhlar   : smd solvation model                     
  S Lehtola, MJT Oliveira, MAL Marques          : LibXC Library                           
  Liviu Ungur et al                             : ANISO software                          


 Your calculation uses the libint2 library for the computation of 2-el integrals
 For citations please refer to: http://libint.valeyev.net

 Your ORCA version has been built with support for libXC version: 7.0.0
 For citations please refer to: https://libxc.gitlab.io

 This ORCA versions uses:
   CBLAS   interface :  Fast vector & matrix operations
   LAPACKE interface :  Fast linear algebra routines
   SCALAPACK package :  Parallel linear algebra routines
   Shared memory     :  Shared parallel matrices
   BLAS/LAPACK       :  OpenBLAS 0.3.29  USE64BITINT DYNAMIC_ARCH NO_AFFINITY Zen SINGLE_THREADED
        Core in use  :  Zen
   Copyright (c) 2011-2014, The OpenBLAS Project


  ***********************************
  * Starting time: Fri Oct 17 08:49:16 2025
  * Host name:     ml16.hpc.nesi.org.nz
  * Process ID:    3043479
  * Working dir.:  /nesi/nobackup/nesi99999/geoffreyweal/ORCA_tutorial/Step2Bb_NEB/Step2B_4_Run_NEB_Calculation_using_NEB_TS
  ***********************************

NOTE: MaxCore=2000 MB was set to SCF,MP2,MDCI,CIPSI,MRCI,RASCI and CIS
      => If you want to overwrite this, your respective input block should be placed after the MaxCore statement


***************************************
The coordinates will be read from file: reactant_opt_unconstrained.xyz
***************************************


Your calculation utilizes the atom-pairwise dispersion correction
with the Becke-Johnson damping scheme (D3BJ)


Your calculation utilizes a Nudged-Elastic-Band implementation
by V. Ásgeirsson, C. Riplinger & H. Jónsson
Please cite in your paper:
Ásgeirsson, V.; Birgisson, B. O.; Bjornsson, R.; Becker, U.; Neese, F.; Riplinger, R.;
Jónsson H. J. Chem. Theory Comput. 2021, 17, 4929-4945
   

Warning: RI is on but no J-basis has been assigned. Assigning Def2/J (nothing to worry about!)
================================================================================

----- Orbital basis set information -----
Your calculation utilizes the basis: def2-TZVP
   F. Weigend and R. Ahlrichs, Phys. Chem. Chem. Phys. 7, 3297 (2005).

----- AuxJ basis set information -----
Your calculation utilizes the auxiliary basis: def2/J
   H-Rn: F. Weigend, Phys. Chem. Chem. Phys. 8, 1057 (2006).
   Fr-Lr: K. Eichkorn, F. Weigend, O. Treutler, R. Ahlrichs; Theor. Chem. Acc. 97, 119 (1997).

================================================================================
                                        WARNINGS
                       Please study these warnings very carefully!
================================================================================


WARNING: Geometry Optimization
  ===> : Switching off AutoStart
         For restart on a previous wavefunction, please use MOREAD

================================================================================
                                       INPUT FILE
================================================================================
NAME = orca.inp
|  1> !B3LYP DEF2-TZVP D3BJ
|  2> !NEB-TS FREQ TightSCF defgrid2
|  3> %SCF
|  4>     MaxIter 2000       # Here setting MaxIter to a very high number. Intended for systems that require sometimes 1000 iterations before converging (very rare).
|  5>     DIISMaxEq 5        # Default value is 5. A value of 15-40 necessary for difficult systems.
|  6>     directresetfreq 15 # Default value is 15. A value of 1 (very expensive) is sometimes required. A value between 1 and 15 may be more cost-effective.
|  7> END
|  8> %CPCM EPSILON 6.02 REFRAC 1.3723 END
|  9> %PAL NPROCS 32 END
| 10> %maxcore 2000 # This indicates you want ORCA to use only 2GB per core maximum, so ORCA will use only 2GB*32=64GB of memory in total.
| 11> %NEB
| 12>     NEB_END_XYZFILE "product_opt.xyz"
| 13>     Nimages 100
| 14>     Interpolation IDPP
| 15>     Opt_Method LBFGS
| 16> END
| 17> * XYZfile 1 1 reactant_opt_unconstrained.xyz
| 18> 
| 19>                          ****END OF INPUT****
================================================================================


--------------------------------------------------------------------------------
                        Nudged Elastic Band Calculation
--------------------------------------------------------------------------------

Number of images (incl. end points)     ....  102
Number of intermediate images           ....  100
Number of optimized images              ....  100
Optimization of end points before NEB   ....  NO
Use existing gbw files for MO input     ....  NO
Number of atoms                         ....  18
Number of (active) degrees of freedom   ....  54
Constrained atoms                       ....  None

-----------------------------------------
  REACTANT (ANGSTROEM)
-----------------------------------------
C     -2.981170     1.807894     1.607572 
C     -1.885423     2.661113     1.501598 
C     -0.724414     2.408079     2.225371 
C     -0.669812     1.274888     3.053843 
C     -1.770486     0.428418     3.166717 
C     -2.929978     0.699342     2.445705 
H     -3.878863     2.014510     1.039025 
H     -3.785164     0.041244     2.527983 
H     -1.935668     3.530878     0.857786 
H      0.258358     1.023159     3.560827 
H     -1.713010    -0.448205     3.798923 
C      0.423225     3.383828     2.237078 
N      0.320522     4.230126     3.468140 
H     -0.299230     5.017694     3.293941 
H      1.225578     4.623687     3.709501 
H      0.420399     4.008693     1.343659 
H      1.373817     2.854811     2.288605 
Cu    -0.536114     3.077338     4.860404 

-----------------------------------------
  PRODUCT (ANGSTROEM)
-----------------------------------------
C     -2.988620     1.819329     1.605387 
C     -1.900138     2.666334     1.504382 
C     -0.727727     2.400106     2.235605 
C     -0.667116     1.266306     3.067942 
C     -1.760024     0.429263     3.163972 
C     -2.919247     0.701852     2.432981 
H     -3.889160     2.025652     1.043314 
H     -3.769756     0.037331     2.512291 
H     -1.939782     3.536898     0.862308 
H      0.225406     1.036279     3.634672 
H     -1.717588    -0.440597     3.805218 
C      0.352256     3.327667     2.083026 
N      1.528708     3.287384     2.748929 
H      1.679487     2.616131     3.494728 
H      2.065013     4.145101     2.833067 
H      0.169645     4.240862     1.528906 
H      1.767841     2.039377    -0.537746 
Cu     1.913260     2.499184     0.894056 



----------------------
NEB settings
----------------------
Method type                             ....  climbing image
Threshold for climbing image            ....  2.00e-02 Eh/Bohr 
Free endpoints                          ....  off 
Tangent type                            ....  improved 
Number of intermediate images           ....  100 
Number of images free to move           ....  100 
Spring type for image distribution      ....  distance between adjacent images 
Spring constant                         ....  energy weighted (0.0100 -to- 0.1000) Eh/Bohr^2 
Spring force perp. to the path          ....  none 
Generation of initial path              ....  image dependent pair potential 
Initial path via TS guess               ....  off 

Minimization of RMSD: Rotation          ....  always 
Minimization of RMSD: Translation type  ....  centroid 
Center fixed to origin                  ....  true 
Remove external force                   ....  true 

Reparametrization of the path           ....  off 
Convergence thresholds:
Convergence monitored for               ....  all images
Scaling factor                          ....  10.00

Convergence parameters for regular images:
               Max(|Fp|)                ....  2.00e-02 Eh/Bohr
               RMS(Fp)                  ....  1.00e-02 Eh/Bohr

Convergence parameters for climbing image:
               Max(|F|)                 ....  2.00e-03 Eh/Bohr
               RMS(F)                   ....  1.00e-03 Eh/Bohr
Optimization method:
Method                                  ....  L-BFGS
Max. iterations                         ....  500 
Step size                               ....  1.00 
Maximum allowed step size               ....  0.10 Bohr

LBFGS parameters: 
               Memory                   ....  20 
               Initial step size        ....  0.0010 
               Estimate curvature       ....  YES 
               Reset on maxmove         ....  YES 
               Reparam. on reset        ....  NO 
Generation of  the initial path:
Minimize RMSD between reactant and product configurations     .... done
       RMSD before minimization         ....  1.7319 Bohr
       RMSD after minimization          ....  1.3234 Bohr
Performing linear interpolation         ....  done
Generating initial path 1 out of 129 -> Success!
Displacement along initial path:             12.0441 Bohr
Writing initial trajectory to file      ....  orca_initial_path_trj.xyz



----------------------
NEB OPTIMIZATION      
----------------------

Following output files will be written:
Energy profile during opt. written to    ....  orca.interp
Optimization log-file                    ....  orca.NEB.log
Current trajectory will be written to    ....  orca_MEP_trj.xyz
       and to allxyz file                ....  orca_MEP.allxyz
       and individual images to xyz file ....  orca_im{NIm}.xyz
Trajectory history will be written to    ....  orca_MEP_ALL_trj.xyz
Converged CI will be written to          ....  orca_NEB-CI_converged.xyz
Converged TS will be written to          ....  orca_NEB-TS_converged.xyz

Single point energy and gradient calculation of reactant and
product configurations (have to be performed only once)


           ************************************************************
           *        Program running with 32 parallel MPI-processes    *
           *              working on a common directory               *
           ************************************************************

------------------------------------------------------------------------------
                         ORCA PROPERTY INTEGRAL CALCULATIONS
------------------------------------------------------------------------------

GBWName                                   ... orca_im0.gbw
Number of atoms                           ...     18
Number of basis functions                 ...    347
Max core memory                           ...   2000 MB

Dipole integrals                          ... YES
Quadrupole integrals                      ...  NO
Linear momentum integrals                 ...  NO
Angular momentum integrals                ...  NO
Higher moments length integrals           ...  NO
Higher moments velocity integrals         ...  NO
Kinetic energy integrals                  ...  NO
GIAO right hand sides                     ...  NO
GIAO dipole derivative integrals          ...  NO
SOC integrals                             ...  NO
EPR diamagnetic integrals (GIAO)          ...  NO
EPR gauge integrals                       ...  NO
Field gradient integrals                  ...  NO (   0 nuclei)
Spin-dipole/Fermi contact integrals       ...  NO (   0 nuclei)
Contact density integrals                 ...  NO (   0 nuclei)
Nucleus-orbit integrals                   ...  NO (   0 nuclei)
Geometric perturbations                   ... YES (  18 nuclei)

Choice of electric origin   ... Center of mass
Position of electric origin ... (  0.1823,  0.2812,  1.4334) 
Choice of magnetic origin   ... GIAO
Position of magnetic origin ... (  0.0000,  0.0000,  0.0000) 

Calculating integrals                     ... Electric Dipole (Length)     done (  0.0 sec)
Calculating integrals                     ... Geometrical perturbation right hand sides

-----------------------
GEOMETRIC PERTURBATIONS (18 nuclei)
-----------------------

MaxCore                            ...   2000 MB
Number of batches                  ...      1

BATCH   0: Atoms    0 -   17 ( 54 perturbations)
   => H(core) and overlap derivative integrals     ... done (     0.2 sec)
   => Making and storing internal U-coefficients   ... done (     0.0 sec)
   => RI-J derivative integrals                    ... done (     1.8 sec)
   => RI-J response operators                      ... done (     0.5 sec)
   => Chain of spheres derivative integrals        ... done (     4.7 sec)
   => Chain of spheres response operator           ... done (     4.7 sec)
   => XC derivative integrals                      ... done (    15.0 sec)
   => XC response operators                        ... done (     3.9 sec)
   => CPCM derivative integrals                    ... done (     4.6 sec)
   => CPCM response operators                      ... done (     7.7 sec)
   => Completing and storing right hand sides      ... done (     0.0 sec)
   => Total time for right hand sides =  40.0 sec

  geometrical perturbations done ( 40.1 sec)

Property integrals calculated in  40.1 sec

Maximum memory used throughout the entire PROPINT-calculation: 488.4 MB


           ************************************************************
           *        Program running with 32 parallel MPI-processes    *
           *              working on a common directory               *
           ************************************************************

------------------------------------------------------------------------------
                         ORCA PROPERTY INTEGRAL CALCULATIONS
------------------------------------------------------------------------------

GBWName                                   ... orca_im101.gbw
Number of atoms                           ...     18
Number of basis functions                 ...    347
Max core memory                           ...   2000 MB

Dipole integrals                          ... YES
Quadrupole integrals                      ...  NO
Linear momentum integrals                 ...  NO
Angular momentum integrals                ...  NO
Higher moments length integrals           ...  NO
Higher moments velocity integrals         ...  NO
Kinetic energy integrals                  ...  NO
GIAO right hand sides                     ...  NO
GIAO dipole derivative integrals          ...  NO
SOC integrals                             ...  NO
EPR diamagnetic integrals (GIAO)          ...  NO
EPR gauge integrals                       ...  NO
Field gradient integrals                  ...  NO (   0 nuclei)
Spin-dipole/Fermi contact integrals       ...  NO (   0 nuclei)
Contact density integrals                 ...  NO (   0 nuclei)
Nucleus-orbit integrals                   ...  NO (   0 nuclei)
Geometric perturbations                   ... YES (  18 nuclei)

Choice of electric origin   ... Center of mass
Position of electric origin ... (  1.5437,  0.4096,  0.0379) 
Choice of magnetic origin   ... GIAO
Position of magnetic origin ... (  0.0000,  0.0000,  0.0000) 

Calculating integrals                     ... Electric Dipole (Length)     done (  0.0 sec)
Calculating integrals                     ... Geometrical perturbation right hand sides

-----------------------
GEOMETRIC PERTURBATIONS (18 nuclei)
-----------------------

MaxCore                            ...   2000 MB
Number of batches                  ...      1

BATCH   0: Atoms    0 -   17 ( 54 perturbations)
   => H(core) and overlap derivative integrals     ... done (     0.2 sec)
   => Making and storing internal U-coefficients   ... done (     0.0 sec)
   => RI-J derivative integrals                    ... done (     1.9 sec)
   => RI-J response operators                      ... done (     0.4 sec)
   => Chain of spheres derivative integrals        ... done (     4.5 sec)
   => Chain of spheres response operator           ... done (     4.4 sec)
   => XC derivative integrals                      ... done (    12.9 sec)
   => XC response operators                        ... done (     3.2 sec)
   => CPCM derivative integrals                    ... done (     4.4 sec)
   => CPCM response operators                      ... done (     7.3 sec)
   => Completing and storing right hand sides      ... done (     0.0 sec)
   => Total time for right hand sides =  36.3 sec

  geometrical perturbations done ( 36.4 sec)

Property integrals calculated in  36.5 sec

Maximum memory used throughout the entire PROPINT-calculation: 488.0 MB
Properties of fixed NEB end points:
               Reactant:
                         E               ....  -1967.196363 Eh
                         RMS(F)          ....      0.000007 Eh/Bohr
                         MAX(|F|)        ....      0.000026 Eh/Bohr
               Product:
                         E               ....  -1967.143638 Eh
                         RMS(F)          ....      0.000159 Eh/Bohr
                         MAX(|F|)        ....      0.000520 Eh/Bohr



Starting iterations:

Optim.  Iteration  HEI  E(HEI)-E(0)  max(|Fp|)   RMS(Fp)    dS
Switch-on CI threshold               0.020000 
   LBFGS     0      49   0.142014    0.068325   0.010971  12.0441       
   LBFGS     1      51   0.135668    0.068736   0.009296  12.0108       
   LBFGS     2      52   0.131150    0.070090   0.008607  12.0083       
   LBFGS     3      53   0.127307    0.069870   0.007952  12.0082       
   LBFGS     4      53   0.123769    0.069071   0.007492  12.0276       
   LBFGS     5      54   0.120280    0.068128   0.006905  12.0492       
   LBFGS     6      54   0.116873    0.066905   0.006341  12.0878       
   LBFGS     7      55   0.113358    0.065000   0.005799  12.1341       
   LBFGS     8      55   0.110048    0.062326   0.005262  12.1892       
   LBFGS     9      55   0.106641    0.058301   0.004741  12.2539       
   LBFGS    10      56   0.103151    0.053352   0.004348  12.3240       
   LBFGS    11      56   0.099947    0.047776   0.003901  12.4121       
   LBFGS    12      56   0.096702    0.041719   0.003354  12.5154       
   LBFGS    13      57   0.093613    0.034791   0.003162  12.6171       
   LBFGS    14      57   0.090801    0.028310   0.002775  12.7513       
   LBFGS    15      57   0.088934    0.023211   0.004135  12.8702       
   LBFGS    16      58   0.087188    0.030704   0.003482  13.0154       
   LBFGS    17      58   0.085576    0.010931   0.002820  13.2240       

Image 58 will be converted to a climbing image in the next iteration (max(|Fp|) < 0.0200) 

Optim.  Iteration  CI   E(CI)-E(0)   max(|Fp|)   RMS(Fp)    dS     max(|FCI|)   RMS(FCI)
Convergence thresholds               0.020000   0.010000            0.002000    0.001000 
   LBFGS    18      58   0.085051    0.010335   0.001598  13.2432    0.006747    0.002440       
   LBFGS    19      58   0.084781    0.010035   0.001566  13.2674    0.006515    0.002381       
   LBFGS    20      58   0.082877    0.009806   0.001838  13.5464    0.005792    0.002622       
   LBFGS    21      58   0.082643    0.006636   0.001267  13.5653    0.005667    0.001901       
   LBFGS    22      58   0.082485    0.006610   0.001238  13.5867    0.005508    0.001830       
   LBFGS    23      58   0.080820    0.012966   0.001236  13.9070    0.004579    0.001452       
   LBFGS    24      58   0.080687    0.019447   0.001242  13.9356    0.003645    0.001358       
   LBFGS    25      58   0.080560    0.012048   0.001115  13.9543    0.003518    0.001365       
   LBFGS    26      58   0.079656    0.032195   0.001655  14.2671    0.004897    0.001339       
   LBFGS    27      58   0.079031    0.027830   0.001826  14.6267    0.007261    0.001636       
   LBFGS    28      58   0.078830    0.019642   0.001436  14.5622    0.005482    0.001306       
   LBFGS    29      58   0.078703    0.011248   0.000886  14.5218    0.004043    0.001098       
   LBFGS    30      58   0.078502    0.009252   0.000833  14.5307    0.002896    0.000873       
   LBFGS    31      58   0.078322    0.015838   0.000975  14.6229    0.003620    0.001038       
   LBFGS    32      58   0.078074    0.024065   0.001341  14.8937    0.007167    0.001628       
   LBFGS    33      58   0.077687    0.020554   0.001314  14.8493    0.004313    0.001163       
   LBFGS    34      58   0.077779    0.015013   0.000996  14.8152    0.002947    0.000891       
   LBFGS    35      58   0.077606    0.011970   0.000777  14.8484    0.003676    0.000925       
   LBFGS    36      58   0.077514    0.016375   0.000950  14.8371    0.002573    0.000813       
   LBFGS    37      58   0.077457    0.009033   0.000693  14.8354    0.002465    0.000736       
   LBFGS    38      58   0.077250    0.015554   0.000789  14.9346    0.002735    0.000872       
   LBFGS    39      58   0.077133    0.020344   0.001005  15.0233    0.003635    0.000975       
   LBFGS    40      58   0.076744    0.025885   0.001447  15.3416    0.004744    0.001144       
   LBFGS    41      58   0.076672    0.020766   0.001048  15.2934    0.003281    0.000874       
   LBFGS    42      58   0.076629    0.017361   0.000749  15.2676    0.002389    0.000732       
   LBFGS    43      58   0.076527    0.007284   0.000460  15.2627    0.001707    0.000514       

                                .--------------------.
          ----------------------| CI-NEB convergence |-------------------------
          Item                value                   Tolerance       Converged
          ---------------------------------------------------------------------
          RMS(Fp)             0.0004597389            0.0100000000      YES
          MAX(|Fp|)           0.0072835564            0.0200000000      YES
          RMS(FCI)            0.0005138961            0.0010000000      YES
          MAX(|FCI|)          0.0017073670            0.0020000000      YES
          ---------------------------------------------------------------------

The elastic band and climbing image have converged successfully to a MEP in 43 iterations!


                    *********************H U R R A Y*********************
                    ***        THE NEB OPTIMIZATION HAS CONVERGED     ***
                    *****************************************************



---------------------------------------------------------------
                         PATH SUMMARY              
---------------------------------------------------------------
All forces in Eh/Bohr.

Image Dist.(Ang.)    E(Eh)   dE(kcal/mol)  max(|Fp|)  RMS(Fp)
  0     0.000   -1967.19636      0.00       0.00002   0.00001
  1     0.051   -1967.19635      0.01       0.00009   0.00003
  2     0.102   -1967.19632      0.02       0.00006   0.00002
  3     0.152   -1967.19631      0.03       0.00008   0.00003
  4     0.202   -1967.19626      0.07       0.00008   0.00004
  5     0.251   -1967.19623      0.08       0.00010   0.00004
  6     0.300   -1967.19619      0.11       0.00011   0.00005
  7     0.348   -1967.19614      0.14       0.00010   0.00005
  8     0.395   -1967.19606      0.19       0.00011   0.00005
  9     0.441   -1967.19600      0.23       0.00013   0.00005
 10     0.488   -1967.19588      0.31       0.00015   0.00006
 11     0.534   -1967.19584      0.33       0.00016   0.00006
 12     0.581   -1967.19575      0.38       0.00018   0.00007
 13     0.629   -1967.19567      0.44       0.00019   0.00007
 14     0.677   -1967.19558      0.49       0.00020   0.00008
 15     0.726   -1967.19550      0.54       0.00021   0.00008
 16     0.775   -1967.19540      0.60       0.00024   0.00008
 17     0.823   -1967.19530      0.67       0.00028   0.00009
 18     0.871   -1967.19519      0.73       0.00032   0.00010
 19     0.921   -1967.19509      0.80       0.00034   0.00010
 20     0.971   -1967.19498      0.87       0.00036   0.00011
 21     1.024   -1967.19488      0.93       0.00037   0.00011
 22     1.078   -1967.19476      1.00       0.00041   0.00012
 23     1.135   -1967.19470      1.04       0.00045   0.00012
 24     1.194   -1967.19460      1.11       0.00047   0.00013
 25     1.255   -1967.19450      1.17       0.00047   0.00012
 26     1.316   -1967.19437      1.25       0.00049   0.00012
 27     1.379   -1967.19424      1.33       0.00050   0.00012
 28     1.445   -1967.19410      1.42       0.00047   0.00012
 29     1.513   -1967.19391      1.54       0.00045   0.00011
 30     1.583   -1967.19379      1.61       0.00047   0.00012
 31     1.654   -1967.19361      1.72       0.00050   0.00012
 32     1.728   -1967.19343      1.84       0.00055   0.00013
 33     1.803   -1967.19320      1.98       0.00061   0.00014
 34     1.882   -1967.19307      2.07       0.00063   0.00015
 35     1.965   -1967.19288      2.19       0.00057   0.00014
 36     2.055   -1967.19273      2.28       0.00049   0.00013
 37     2.148   -1967.19246      2.45       0.00045   0.00012
 38     2.245   -1967.19223      2.59       0.00048   0.00014
 39     2.344   -1967.19199      2.75       0.00051   0.00015
 40     2.447   -1967.19172      2.91       0.00056   0.00016
 41     2.555   -1967.19146      3.07       0.00057   0.00017
 42     2.673   -1967.19120      3.24       0.00061   0.00019
 43     2.806   -1967.19089      3.44       0.00076   0.00023
 44     2.960   -1967.19052      3.66       0.00095   0.00028
 45     3.142   -1967.18994      4.03       0.00119   0.00036
 46     3.360   -1967.18894      4.66       0.00127   0.00047
 47     3.600   -1967.18701      5.87       0.00222   0.00063
 48     3.827   -1967.18370      7.95       0.00349   0.00078
 49     4.016   -1967.17961     10.51       0.00268   0.00077
 50     4.137   -1967.17616     12.68       0.00411   0.00126
 51     4.271   -1967.17177     15.43       0.00340   0.00111
 52     4.506   -1967.16202     21.55       0.00595   0.00150
 53     4.735   -1967.14647     31.31       0.00728   0.00218
 54     4.882   -1967.13375     39.29       0.00568   0.00129
 55     4.984   -1967.12652     43.83       0.00290   0.00082
 56     5.069   -1967.12251     46.34       0.00185   0.00054
 57     5.149   -1967.12047     47.63       0.00178   0.00050
 58     5.230   -1967.11984     48.02       0.00171   0.00051 <= CI
 59     5.303   -1967.12023     47.77       0.00166   0.00051
 60     5.377   -1967.12128     47.11       0.00164   0.00048
 61     5.453   -1967.12278     46.17       0.00158   0.00046
 62     5.533   -1967.12458     45.05       0.00155   0.00044
 63     5.617   -1967.12652     43.83       0.00154   0.00043
 64     5.705   -1967.12848     42.60       0.00148   0.00046
 65     5.799   -1967.13034     41.43       0.00158   0.00053
 66     5.896   -1967.13204     40.37       0.00161   0.00056
 67     5.998   -1967.13362     39.37       0.00156   0.00046
 68     6.106   -1967.13513     38.43       0.00165   0.00040
 69     6.217   -1967.13644     37.60       0.00173   0.00043
 70     6.324   -1967.13750     36.94       0.00181   0.00048
 71     6.423   -1967.13831     36.43       0.00195   0.00050
 72     6.510   -1967.13892     36.04       0.00194   0.00051
 73     6.588   -1967.13940     35.74       0.00188   0.00053
 74     6.659   -1967.13980     35.50       0.00180   0.00052
 75     6.725   -1967.14013     35.29       0.00172   0.00051
 76     6.787   -1967.14041     35.11       0.00163   0.00047
 77     6.845   -1967.14067     34.95       0.00157   0.00046
 78     6.902   -1967.14090     34.80       0.00154   0.00044
 79     6.957   -1967.14112     34.67       0.00149   0.00042
 80     7.010   -1967.14133     34.54       0.00142   0.00042
 81     7.062   -1967.14152     34.41       0.00136   0.00041
 82     7.114   -1967.14171     34.29       0.00131   0.00039
 83     7.165   -1967.14189     34.18       0.00124   0.00036
 84     7.216   -1967.14207     34.07       0.00118   0.00033
 85     7.266   -1967.14224     33.97       0.00108   0.00031
 86     7.316   -1967.14239     33.87       0.00104   0.00029
 87     7.365   -1967.14254     33.77       0.00094   0.00027
 88     7.415   -1967.14268     33.69       0.00086   0.00025
 89     7.465   -1967.14281     33.60       0.00080   0.00023
 90     7.515   -1967.14294     33.52       0.00071   0.00021
 91     7.565   -1967.14307     33.44       0.00064   0.00019
 92     7.616   -1967.14319     33.37       0.00056   0.00016
 93     7.667   -1967.14329     33.30       0.00049   0.00014
 94     7.718   -1967.14338     33.24       0.00042   0.00012
 95     7.770   -1967.14347     33.19       0.00036   0.00010
 96     7.821   -1967.14352     33.16       0.00030   0.00009
 97     7.872   -1967.14359     33.12       0.00024   0.00007
 98     7.923   -1967.14355     33.14       0.00019   0.00005
 99     7.974   -1967.14366     33.07       0.00014   0.00005
100     8.025   -1967.14367     33.07       0.00009   0.00002
101     8.077   -1967.14364     33.09       0.00048   0.00016

Straight line distance between images along the path:
        D( 0- 1) =   0.0515 Ang.
        D( 1- 2) =   0.0509 Ang.
        D( 2- 3) =   0.0500 Ang.
        D( 3- 4) =   0.0494 Ang.
        D( 4- 5) =   0.0491 Ang.
        D( 5- 6) =   0.0486 Ang.
        D( 6- 7) =   0.0480 Ang.
        D( 7- 8) =   0.0472 Ang.
        D( 8- 9) =   0.0466 Ang.
        D( 9-10) =   0.0464 Ang.
        D(10-11) =   0.0465 Ang.
        D(11-12) =   0.0468 Ang.
        D(12-13) =   0.0477 Ang.
        D(13-14) =   0.0485 Ang.
        D(14-15) =   0.0489 Ang.
        D(15-16) =   0.0488 Ang.
        D(16-17) =   0.0483 Ang.
        D(17-18) =   0.0483 Ang.
        D(18-19) =   0.0491 Ang.
        D(19-20) =   0.0506 Ang.
        D(20-21) =   0.0524 Ang.
        D(21-22) =   0.0543 Ang.
        D(22-23) =   0.0567 Ang.
        D(23-24) =   0.0594 Ang.
        D(24-25) =   0.0609 Ang.
        D(25-26) =   0.0615 Ang.
        D(26-27) =   0.0629 Ang.
        D(27-28) =   0.0657 Ang.
        D(28-29) =   0.0680 Ang.
        D(29-30) =   0.0698 Ang.
        D(30-31) =   0.0716 Ang.
        D(31-32) =   0.0734 Ang.
        D(32-33) =   0.0753 Ang.
        D(33-34) =   0.0787 Ang.
        D(34-35) =   0.0838 Ang.
        D(35-36) =   0.0891 Ang.
        D(36-37) =   0.0939 Ang.
        D(37-38) =   0.0965 Ang.
        D(38-39) =   0.0989 Ang.
        D(39-40) =   0.1028 Ang.
        D(40-41) =   0.1088 Ang.
        D(41-42) =   0.1179 Ang.
        D(42-43) =   0.1323 Ang.
        D(43-44) =   0.1539 Ang.
        D(44-45) =   0.1828 Ang.
        D(45-46) =   0.2178 Ang.
        D(46-47) =   0.2398 Ang.
        D(47-48) =   0.2271 Ang.
        D(48-49) =   0.1895 Ang.
        D(49-50) =   0.1209 Ang.
        D(50-51) =   0.1340 Ang.
        D(51-52) =   0.2349 Ang.
        D(52-53) =   0.2289 Ang.
        D(53-54) =   0.1473 Ang.
        D(54-55) =   0.1020 Ang.
        D(55-56) =   0.0849 Ang.
        D(56-57) =   0.0794 Ang.
        D(57-58) =   0.0809 Ang.
        D(58-59) =   0.0731 Ang.
        D(59-60) =   0.0740 Ang.
        D(60-61) =   0.0762 Ang.
        D(61-62) =   0.0796 Ang.
        D(62-63) =   0.0840 Ang.
        D(63-64) =   0.0884 Ang.
        D(64-65) =   0.0937 Ang.
        D(65-66) =   0.0975 Ang.
        D(66-67) =   0.1019 Ang.
        D(67-68) =   0.1080 Ang.
        D(68-69) =   0.1113 Ang.
        D(69-70) =   0.1070 Ang.
        D(70-71) =   0.0986 Ang.
        D(71-72) =   0.0869 Ang.
        D(72-73) =   0.0782 Ang.
        D(73-74) =   0.0710 Ang.
        D(74-75) =   0.0657 Ang.
        D(75-76) =   0.0619 Ang.
        D(76-77) =   0.0587 Ang.
        D(77-78) =   0.0564 Ang.
        D(78-79) =   0.0550 Ang.
        D(79-80) =   0.0534 Ang.
        D(80-81) =   0.0523 Ang.
        D(81-82) =   0.0517 Ang.
        D(82-83) =   0.0511 Ang.
        D(83-84) =   0.0508 Ang.
        D(84-85) =   0.0502 Ang.
        D(85-86) =   0.0498 Ang.
        D(86-87) =   0.0494 Ang.
        D(87-88) =   0.0494 Ang.
        D(88-89) =   0.0496 Ang.
        D(89-90) =   0.0500 Ang.
        D(90-91) =   0.0505 Ang.
        D(91-92) =   0.0509 Ang.
        D(92-93) =   0.0513 Ang.
        D(93-94) =   0.0512 Ang.
        D(94-95) =   0.0513 Ang.
        D(95-96) =   0.0511 Ang.
        D(96-97) =   0.0510 Ang.
        D(97-98) =   0.0509 Ang.
        D(98-99) =   0.0510 Ang.
        D(99-100) =   0.0514 Ang.
        D(100-101) =   0.0515 Ang.

---------------------------------------------------------------
               INFORMATION ABOUT SADDLE POINT     
---------------------------------------------------------------

Climbing image                            ....  58 
Energy                                    ....  -1967.11983571 Eh
Max. abs. force                           ....  1.7074e-03 Eh/Bohr

-----------------------------------------
  SADDLE POINT (ANGSTROEM)
-----------------------------------------
C     -1.768504    -0.719915    -1.348786 
C     -0.740318     0.210288    -1.237327 
C      0.137101     0.158078    -0.153031 
C     -0.027519    -0.835914     0.815763 
C     -1.041518    -1.773324     0.692124 
C     -1.913632    -1.718213    -0.392875 
H     -2.448057    -0.670121    -2.189678 
H     -2.695832    -2.459434    -0.495861 
H     -0.622012     0.979095    -1.990497 
H      0.660422    -0.903993     1.651139 
H     -1.139373    -2.560103     1.428918 
C      1.221755     1.165164    -0.069560 
N      1.290207     1.971889     1.084963 
H      0.539653     1.885544     1.756544 
H      1.630032     2.915518     0.955712 
H      1.429766     1.696050    -0.987697 
H      2.627031     0.106664    -0.483029 
Cu     2.860798     0.552728     0.963179 

-----------------------------------------
  FORCES (Eh/Bohr)
-----------------------------------------
C      0.000166     0.000135    -0.000232 
C      0.000261    -0.000051    -0.000082 
C      0.000053    -0.000092    -0.000144 
C     -0.000029     0.000042     0.000050 
C     -0.000064     0.000248     0.000096 
C     -0.000163     0.000172     0.000078 
H      0.000243     0.000033    -0.000084 
H     -0.000109     0.000352     0.000100 
H      0.000357    -0.000069    -0.000228 
H      0.000096     0.000092    -0.000018 
H     -0.000330     0.000484     0.000223 
C      0.000176    -0.000417    -0.000212 
N      0.000116    -0.000165    -0.000106 
H      0.000653    -0.001549     0.000786 
H     -0.001707     0.000401    -0.000002 
H      0.000170     0.000095     0.000148 
H     -0.000729    -0.000678     0.001138 
Cu     0.000842     0.000967    -0.001513 

-----------------------------------------
  UNIT TANGENT
-----------------------------------------
C      0.003648    -0.005361    -0.007419 
C     -0.006798     0.000576    -0.002072 
C     -0.049048     0.036627     0.040922 
C     -0.024531     0.015506     0.024718 
C      0.000476    -0.004001    -0.000569 
C      0.000879    -0.000639    -0.001568 
H      0.003311    -0.005584    -0.006837 
H      0.000760    -0.000363    -0.001976 
H     -0.004284     0.002426     0.000711 
H     -0.018121     0.008404     0.015714 
H      0.003948    -0.008607    -0.006148 
C     -0.250336     0.191152     0.109327 
N     -0.175606     0.106087    -0.016851 
H     -0.005410     0.034917     0.152814 
H      0.009026     0.049002     0.067224 
H      0.046307    -0.000726     0.065064 
H      0.654184    -0.474405    -0.129218 
Cu    -0.188404     0.054989    -0.303836 
 => Unit tangent is an approximation to the TS mode at the saddle point

Next a TS optimization is performed on the CI from the NEB run.

         *************************************************************
         *                       TS OPTIMIZATION                     *
         *************************************************************


Following output files will be written:
Converged TS will be written to          ....  orca_NEB-TS_converged.xyz
                                         ....  orca.xyz
Current trajectory will be written to    ....  orca_trj.xyz
Initial Hessian will be stored in        ....  orca.appr.hess
 (Almloef) Geometry optimization settings:
Update method            Update   .... Bofill
Choice of coordinates    CoordSys .... (2022) Redundant Internals
Initial Hessian          InHess   .... Read
Max. no of cycles        MaxIter  .... 54

Convergence Tolerances:
Energy Change            TolE     ....  5.0000e-06 Eh
Max. Gradient            TolMAXG  ....  3.0000e-04 Eh/bohr
RMS Gradient             TolRMSG  ....  1.0000e-04 Eh/bohr
Max. Displacement        TolMAXD  ....  4.0000e-03 bohr
RMS Displacement         TolRMSD  ....  2.0000e-03 bohr
Strict Convergence                .... False

------------------------------------------------------------------------------
                        ORCA OPTIMIZATION COORDINATE SETUP
------------------------------------------------------------------------------

The optimization will be done in redundant internal coordinates (2022)
Making redundant internal coordinates   ...  (2022 redundants) done
Following TS mode number                ...     0
TS-active-atoms for coordinate setup... 11 16 17 
Evaluating the initial hessian          ... (Reading Exact Hessian)...  
InHessName: orca.appr.hess	The file <orca.appr.hess> is opened as a .hess file
done
done
Evaluating the coordinates              ...  done
Calculating the B-matrix                .... done
Calculating the G-matrix                .... done
The number of degrees of freedom        ....  104

    -----------------------------------------------------------------
                    Redundant Internal Coordinates


    -----------------------------------------------------------------
         Definition                    Initial Value    d2E/dq (diagonal element)
    -----------------------------------------------------------------
      1. B(C   1,C   0)                  1.3910         0.573493   
      2. B(C   2,C   1)                  1.3958         0.355751   
      3. B(C   3,C   2)                  1.3977         0.509452   
      4. B(C   4,C   3)                  1.3864         0.582801   
      5. B(C   5,C   0)                  1.3898         0.573717   
      6. B(C   5,C   4)                  1.3931         0.569421   
      7. B(H   6,C   0)                  1.0823         0.370436   
      8. B(H   7,C   5)                  1.0825         0.370132   
      9. B(H   8,C   1)                  1.0827         0.369834   
     10. B(H   9,C   3)                  1.0843         0.359091   
     11. B(H  10,C   4)                  1.0823         0.370377   
     12. B(C  11,C   2)                  1.4825         0.244356   
     13. B(C  11,C   1)                  2.4749         0.098409   
     14. B(N  12,C  11)                  1.4101         0.413292   
     15. B(H  13,N  12)                  1.0108         0.277857   
     16. B(H  14,N  12)                  1.0112         0.308835   
     17. B(H  15,C  11)                  1.0808         0.273662   
     18. B(Cu 17,H  15)                  2.6760         0.081086   
     19. B(Cu 17,H  14)                  2.6641         0.075798   
     20. B(Cu 17,H  13)                  2.7917         0.079381   
     21. B(Cu 17,H   9)                  2.7271         0.037672   
     22. B(Cu 17,C   3)                  3.2082         0.056797   
     23. B(Cu 17,C   2)                  2.9699         0.088202   
     24. B(Cu 17,H  16)                  1.5314         0.757829   
     25. B(Cu 17,N  12)                  2.1203         0.109415   
     26. B(Cu 17,C  11)                  2.0318         0.152089   
     27. A(C   5,C   0,H   6)          120.1249         0.217131   
     28. A(C   1,C   0,H   6)          119.7094         0.217079   
     29. A(C   1,C   0,C   5)          120.1617         0.158576   
     30. A(C   2,C   1,H   8)          119.8838         0.215221   
     31. A(C   0,C   1,H   8)          119.9910         0.215421   
     32. A(C   0,C   1,C   2)          120.1247         0.152849   
     33. A(C   3,C   2,C  11)          122.0224         0.054107   
     34. A(C   1,C   2,C   3)          119.4057         0.105527   
     35. A(C   1,C   2,C  11)          118.5718         0.096935   
     36. A(C   4,C   3,H   9)          119.3580         0.154890   
     37. A(C   2,C   3,H   9)          120.2592         0.093046   
     38. A(C   2,C   3,C   4)          120.3413         0.142406   
     39. A(C   3,C   4,H  10)          119.7957         0.215380   
     40. A(C   3,C   4,C   5)          120.0362         0.151359   
     41. A(C   5,C   4,H  10)          120.1543         0.215178   
     42. A(C   0,C   5,C   4)          119.9162         0.158714   
     43. A(C   4,C   5,H   7)          119.9564         0.216924   
     44. A(C   0,C   5,H   7)          120.1237         0.217067   
     45. A(H  15,C  11,Cu 17)          115.1257         0.036039   
     46. A(N  12,C  11,Cu 17)           73.5680         0.026715   
     47. A(C   2,C  11,Cu 17)          114.4617         0.036565   
     48. A(N  12,C  11,H  15)          113.9020         0.034641   
     49. A(C   2,C  11,H  15)          115.2571         0.071489   
     50. A(C   2,C  11,N  12)          118.0517         0.041696   
     51. A(H  14,N  12,Cu 17)          111.6111         0.028280   
     52. A(H  13,N  12,Cu 17)          122.0725         0.029654   
     53. A(C  11,N  12,Cu 17)           66.7970         0.027452   
     54. A(H  13,N  12,H  14)          114.4650         0.065840   
     55. A(C  11,N  12,H  14)          116.4561         0.041070   
     56. A(C  11,N  12,H  13)          117.3254         0.036334   
     57. A(C  11,Cu 17,N  12)           39.6349         0.033512   
     58. A(N  12,Cu 17,H  16)           97.8239         0.069482   
     59. A(C  11,Cu 17,H  16)           58.9780         0.027926   
     60. D(H   8,C   1,C   0,C   5)    179.2066         0.007195   
     61. D(C   2,C   1,C   0,H   6)    179.6898         0.007480   
     62. D(C   2,C   1,C   0,C   5)     -1.0393         0.008410   
     63. D(H   8,C   1,C   0,H   6)     -0.0643         0.004829   
     64. D(C   3,C   2,C   1,H   8)    179.7891         0.006189   
     65. D(C  11,C   2,C   1,C   0)    179.9101         0.006921   
     66. D(C   3,C   2,C   1,C   0)      0.0347         0.007557   
     67. D(C  11,C   2,C   1,H   8)     -0.3356         0.004672   
     68. D(H   9,C   3,C   2,C  11)     -1.3440         0.005488   
     69. D(C   4,C   3,C   2,C  11)   -178.9841         0.007066   
     70. D(H   9,C   3,C   2,C   1)    178.5269         0.007563   
     71. D(C   4,C   3,C   2,C   1)      0.8867         0.007577   
     72. D(H  10,C   4,C   3,C   2)    177.8440         0.007528   
     73. D(C   5,C   4,C   3,H   9)   -178.4655         0.007711   
     74. D(C   5,C   4,C   3,C   2)     -0.8042         0.008431   
     75. D(H  10,C   4,C   3,H   9)      0.1827         0.005186   
     76. D(H   7,C   5,C   4,H  10)      0.4575         0.004991   
     77. D(H   7,C   5,C   4,C   3)    179.1008         0.007427   
     78. D(C   0,C   5,C   4,C   3)     -0.2040         0.008516   
     79. D(H   7,C   5,C   0,H   6)      1.0895         0.004936   
     80. D(H   7,C   5,C   0,C   1)   -178.1784         0.007480   
     81. D(C   4,C   5,C   0,H   6)   -179.6068         0.007315   
     82. D(C   4,C   5,C   0,C   1)      1.1253         0.008483   
     83. D(C   0,C   5,C   4,H  10)   -178.8473         0.007363   
     84. D(Cu 17,C  11,C   2,C   1)   -153.4667         0.018626   
     85. D(H  15,C  11,C   2,C   3)    163.3257         0.014816   
     86. D(H  15,C  11,C   2,C   1)    -16.5461         0.014106   
     87. D(N  12,C  11,C   2,C   3)    -57.2951         0.015449   
     88. D(N  12,C  11,C   2,C   1)    122.8330         0.015705   
     89. D(H  13,N  12,C  11,H  15)    133.9068         0.038490   
     90. D(H  13,N  12,C  11,C   2)     -5.9991         0.043160   
     91. D(H  14,N  12,C  11,Cu 17)    103.5490         0.027784   
     92. D(H  14,N  12,C  11,H  15)     -7.1531         0.037364   
     93. D(H  14,N  12,C  11,C   2)   -147.0589         0.041712   
     94. D(H  13,N  12,C  11,Cu 17)   -115.3911         0.032101   
     95. D(H  16,Cu 17,N  12,H  14)    -99.5153         0.029841   
     96. D(H  16,Cu 17,N  12,H  13)    119.7773         0.030852   
     97. D(C  11,Cu 17,N  12,H  14)   -110.5823         0.041469   
     98. D(C  11,Cu 17,N  12,H  13)    108.7103         0.041403   
     99. D(H  16,Cu 17,C  11,H  15)    -58.0155         0.024478   
    100. D(H  16,Cu 17,C  11,N  12)   -167.1788         0.009101   
    101. D(H  16,Cu 17,N  12,C  11)     11.0670         0.006766   
    102. D(H  16,Cu 17,C  11,C   2)     78.9628         0.028632   
    103. D(N  12,Cu 17,C  11,H  15)    109.1633         0.038733   
    104. D(N  12,Cu 17,C  11,C   2)   -113.8584         0.046081   
    -----------------------------------------------------------------

Number of atoms                         .... 18
Number of degrees of freedom            .... 104


         *************************************************************
         *                GEOMETRY OPTIMIZATION CYCLE   1            *
         *************************************************************


           ************************************************************
           *        Program running with 32 parallel MPI-processes    *
           *              working on a common directory               *
           ************************************************************
------------------------------------------------------------------------------
                             ORCA STARTUP CALCULATIONS
                           -- RI-GTO INTEGRALS CHOSEN --
------------------------------------------------------------------------------
------------------------------------------------------------------------------
                   ___                                                        
                  /   \      - P O W E R E D   B Y -                         
                 /     \                                                     
                 |  |  |   _    _      __       _____    __    __             
                 |  |  |  | |  | |    /  \     |  _  \  |  |  /  |          
                  \  \/   | |  | |   /    \    | | | |  |  | /  /          
                 / \  \   | |__| |  /  /\  \   | |_| |  |  |/  /          
                |  |  |   |  __  | /  /__\  \  |    /   |      \           
                |  |  |   | |  | | |   __   |  |    \   |  |\   \          
                \     /   | |  | | |  |  |  |  | |\  \  |  | \   \       
                 \___/    |_|  |_| |__|  |__|  |_| \__\ |__|  \__/        
                                                                              
                      - O R C A' S   B I G   F R I E N D -                    
                                      &                                       
                       - I N T E G R A L  F E E D E R -                       
                                                                              
 v1 FN, 2020, v2 2021, v3 2022-2024                                           
------------------------------------------------------------------------------


----------------------
SHARK INTEGRAL PACKAGE
----------------------

Number of atoms                             ...     18
Number of basis functions                   ...    347
Number of shells                            ...    139
Maximum angular momentum                    ...      3
Integral batch strategy                     ... SHARK/LIBINT Hybrid
RI-J (if used) integral strategy            ... SPLIT-RIJ (Revised 2003 algorithm where possible)
Printlevel                                  ...      1
Contraction scheme used                     ... SEGMENTED contraction
Prescreening option                         ... SCHWARTZ
   Thresh                                   ... 2.500e-11
   Tcut                                     ... 2.500e-12
   Tpresel                                  ... 2.500e-12 
Coulomb Range Separation                    ... NOT USED
Exchange Range Separation                   ... NOT USED
Multipole approximations                    ... NOT USED
Finite Nucleus Model                        ... NOT USED
CABS basis                                  ... NOT available
Auxiliary Coulomb fitting basis             ... AVAILABLE
   # of basis functions in Aux-J            ...    582
   # of shells in Aux-J                     ...    188
   Maximum angular momentum in Aux-J        ...      4
Auxiliary J/K fitting basis                 ... NOT available
Auxiliary Correlation fitting basis         ... NOT available
Auxiliary 'external' fitting basis          ... NOT available

Checking pre-screening integrals            ... done (  0.0 sec) Dimension = 139
   => SHARK Basis and OBASIS are compatible. Storing Pre-screening
Shell pair information
Shell pair cut-off parameter TPreSel        ...   2.5e-12
Total number of shell pairs                 ...      9730
Shell pairs after pre-screening             ...      8644
Total number of primitive shell pairs       ...     31637
Primitive shell pairs kept                  ...     20308
          la=0 lb=0:   2309 shell pairs
          la=1 lb=0:   2403 shell pairs
          la=1 lb=1:    647 shell pairs
          la=2 lb=0:   1315 shell pairs
          la=2 lb=1:    687 shell pairs
          la=2 lb=2:    199 shell pairs
          la=3 lb=0:    578 shell pairs
          la=3 lb=1:    303 shell pairs
          la=3 lb=2:    164 shell pairs
          la=3 lb=3:     39 shell pairs

Checking whether 4 symmetric matrices of dimension 347 fit in memory
:Max Core in MB      =   2000.00
 MB in use           =     15.32
 MB left             =   1984.68
 MB needed           =      1.84
 Data fit in memory  = YES
Calculating RI/J V-Matrix + Cholesky decomp.... done (  0.2 sec)
Calculating Nuclear repulsion               ... done (  0.0 sec) ENN=    615.796460003939 Eh

Diagonalization of the overlap matrix:
Smallest eigenvalue                        ... 8.409e-06
Time for diagonalization                   ...    0.016 sec
Threshold for overlap eigenvalues          ... 1.000e-07
Number of eigenvalues below threshold      ... 0
Time for construction of square roots      ...    0.010 sec
Total time needed                          ...    0.029 sec

-------------------
DFT GRID GENERATION
-------------------

General Integration Accuracy     IntAcc      ... 4.388
Radial Grid Type                 RadialGrid  ... OptM3 with GC (2021)
Angular Grid (max. ang.)         AngularGrid ... 4 (Lebedev-302)
Angular grid pruning method      GridPruning ... 4 (adaptive)
Weight generation scheme         WeightScheme... mBecke (2022)
Basis function cutoff            BFCut       ... 1.0000e-11
Integration weight cutoff        WCut        ... 1.0000e-14
Partially contracted basis set               ... off
Rotationally invariant grid construction     ... off
Angular grids for H and He will be reduced by one unit
Core-polarized basis detected: some atoms will have their core
                               angular grid increased.

Total number of grid points                  ...    88096
Total number of batches                      ...     1386
Average number of points per batch           ...       63
Average number of grid points per atom       ...     4894

--------------------
COSX GRID GENERATION
--------------------

GRIDX 1
-------
General Integration Accuracy     IntAcc      ... 3.816
Radial Grid Type                 RadialGrid  ... OptM3 with GC (2021)
Angular Grid (max. ang.)         AngularGrid ... 1 (Lebedev-50)
Angular grid pruning method      GridPruning ... 4 (adaptive)
Weight generation scheme         WeightScheme... mBecke (2022)
Basis function cutoff            BFCut       ... 1.0000e-11
Integration weight cutoff        WCut        ... 1.0000e-14
Partially contracted basis set               ... on
Rotationally invariant grid construction     ... off
Angular grids for H and He will be reduced by one unit
Core-polarized basis detected: some atoms will have their core
                               angular grid increased.

Total number of grid points                  ...    15705
Total number of batches                      ...      132
Average number of points per batch           ...      118
Average number of grid points per atom       ...      872
UseSFitting                                  ... on

GRIDX 2
-------
General Integration Accuracy     IntAcc      ... 4.020
Radial Grid Type                 RadialGrid  ... OptM3 with GC (2021)
Angular Grid (max. ang.)         AngularGrid ... 2 (Lebedev-110)
Angular grid pruning method      GridPruning ... 4 (adaptive)
Weight generation scheme         WeightScheme... mBecke (2022)
Basis function cutoff            BFCut       ... 1.0000e-11
Integration weight cutoff        WCut        ... 1.0000e-14
Partially contracted basis set               ... on
Rotationally invariant grid construction     ... off
Angular grids for H and He will be reduced by one unit
Core-polarized basis detected: some atoms will have their core
                               angular grid increased.

Total number of grid points                  ...    27015
Total number of batches                      ...      219
Average number of points per batch           ...      123
Average number of grid points per atom       ...     1501
UseSFitting                                  ... on

GRIDX 3
-------
General Integration Accuracy     IntAcc      ... 4.338
Radial Grid Type                 RadialGrid  ... OptM3 with GC (2021)
Angular Grid (max. ang.)         AngularGrid ... 3 (Lebedev-194)
Angular grid pruning method      GridPruning ... 4 (adaptive)
Weight generation scheme         WeightScheme... mBecke (2022)
Basis function cutoff            BFCut       ... 1.0000e-11
Integration weight cutoff        WCut        ... 1.0000e-14
Partially contracted basis set               ... on
Rotationally invariant grid construction     ... off
Angular grids for H and He will be reduced by one unit
Core-polarized basis detected: some atoms will have their core
                               angular grid increased.

Total number of grid points                  ...    52287
Total number of batches                      ...      416
Average number of points per batch           ...      125
Average number of grid points per atom       ...     2905
UseSFitting                                  ... on
Grids setup in   1.4 sec
Initializing property integral containers    ... done (  0.0 sec)

SHARK setup successfully completed in   1.9 seconds

Maximum memory used throughout the entire STARTUP-calculation: 34.3 MB


           ************************************************************
           *        Program running with 32 parallel MPI-processes    *
           *              working on a common directory               *
           ************************************************************
-------------------------------------------------------------------------------
                                 ORCA GUESS
                   Start orbitals & Density for SCF / CASSCF
-------------------------------------------------------------------------------

------------
SCF SETTINGS
------------
Hamiltonian:
 Density Functional     Method          .... DFT(GTOs)
 Exchange Functional    Exchange        .... B88
   X-Alpha parameter    XAlpha          ....  0.666667
   Becke's b parameter  XBeta           ....  0.004200
 Correlation Functional Correlation     .... LYP
 LDA part of GGA corr.  LDAOpt          .... VWN-5
 Gradients option       PostSCFGGA      .... off
 Hybrid DFT is turned on
   Fraction HF Exchange ScalHFX         ....  0.200000
   Scaling of DF-GGA-X  ScalDFX         ....  0.720000
   Scaling of DF-GGA-C  ScalDFC         ....  0.810000
   Scaling of DF-LDA-C  ScalLDAC        ....  1.000000
   Perturbative correction              ....  0.000000
   NL short-range parameter             ....  4.800000
 RI-approximation to the Coulomb term is turned on
   Number of AuxJ basis functions       .... 582
   RIJ-COSX (HFX calculated with COS-X)).... on


General Settings:
 Integral files         IntName         .... orca
 Hartree-Fock type      HFTyp           .... RHF
 Total Charge           Charge          ....    1
 Multiplicity           Mult            ....    1
 Number of Electrons    NEL             ....   86
 Basis Dimension        Dim             ....  347
 Nuclear Repulsion      ENuc            ....    615.7964600039 Eh

Convergence Acceleration:
 AO-DIIS                CNVDIIS         .... on
   Start iteration      DIISMaxIt       ....    12
   Startup error        DIISStart       ....  0.200000
   # of expansion vecs  DIISMaxEq       ....     5
   Bias factor          DIISBfac        ....   1.050
   Max. coefficient     DIISMaxC        ....  10.000
 MO-DIIS                CNVKDIIS        .... off
 Trust-Rad. Augm. Hess. CNVTRAH         .... auto
   Auto Start mean grad. ratio tolernc. ....  1.125000
   Auto Start start iteration           ....     1
   Auto Start num. interpolation iter.  ....    10
   Max. Number of Micro iterations      ....    24
   Max. Number of Macro iterations      .... Maxiter - #DIIS iter
   Number of Davidson start vectors     ....     2
   Converg. threshold    (grad. norm)   ....   1.000e-05
   Grad. Scal. Fac. for Micro threshold ....   0.100
   Minimum threshold for Micro iter.    ....   1.000e-02
   NR start threshold (gradient norm)   ....   1.000e-04
   Initial trust radius                 ....   0.400
   Minimum AH scaling param. (alpha)    ....   1.000
   Maximum AH scaling param. (alpha)    .... 1000.000
   Quad. conv. algorithm                .... NR
   White noise on init. David. guess    .... on
   Maximum white noise                  ....   0.010
   Pseudo random numbers                .... off
   Inactive MOs                         .... canonical
   Orbital update algorithm             .... Taylor
   Preconditioner                       .... Diag
   Full preconditioner red. dimension   ....   250
 SOSCF                 CNVSOSCF           .... on
   Start iteration     SOSCFMaxIt         ....   150
   Startup grad/error  SOSCFStart         ....  0.003300
   Hessian update      SOSCFHessUp        .... L-BFGS
   Autom. constraints  SOSCFAutoConstrain .... off
 Level Shifting         CNVShift        .... on
   Level shift para.    LevelShift      ....    0.2500
   Turn off err/grad.   ShiftErr        ....    0.0010
 Zerner damping         CNVZerner       .... off
 Static damping         CNVDamp         .... on
   Fraction old density DampFac         ....    0.7000
   Max. Damping (<1)    DampMax         ....    0.9800
   Min. Damping (>=0)   DampMin         ....    0.0000
   Turn off err/grad.   DampErr         ....    0.1000

SCF Procedure:
 Maximum # iterations   MaxIter         ....  2000
 SCF integral mode      SCFMode         .... Direct
   Integral package                     .... SHARK and LIBINT hybrid scheme
 Reset frequency        DirectResetFreq ....    15
 Integral Threshold     Thresh          ....  2.500e-11 Eh
 Primitive CutOff       TCut            ....  2.500e-12 Eh

Convergence Tolerance:
 Convergence Check Mode ConvCheckMode   .... Total+1el-Energy
 Convergence forced     ConvForced      .... 0
 Energy Change          TolE            ....  1.000e-08 Eh
 1-El. energy change                    ....  1.000e-05 Eh
 Orbital Gradient       TolG            ....  1.000e-05
 Orbital Rotation angle TolX            ....  1.000e-05
 DIIS Error             TolErr          ....  5.000e-07

---------------------
INITIAL GUESS: MOREAD
---------------------
Guess MOs are being read from file: orca.gbw
Input Geometry matches current geometry (good)
Input basis set matches current basis set (good)
Occupation numbers will be reassigned to an Aufbau configuration
MOs were renormalized
MOs were reorthogonalized (Cholesky)
                      ------------------
                      INITIAL GUESS DONE (   0.1 sec)
                      ------------------
             **** ENERGY FILE WAS UPDATED (orca.en.tmp) ****
Finished Guess after   1.6 sec
Maximum memory used throughout the entire GUESS-calculation: 20.7 MB


           ************************************************************
           *        Program running with 32 parallel MPI-processes    *
           *              working on a common directory               *
           ************************************************************

-------------------------------------------------------------------------------------------
                                      ORCA LEAN-SCF
                              memory conserving SCF solver
-------------------------------------------------------------------------------------------

--------------------
CPCM SOLVATION MODEL
--------------------
CPCM parameters:
  Epsilon                                         ...       6.0200
  Refrac                                          ...       1.3723
  Rsolv                                           ...       1.3000
  Surface type                                    ... GAUSSIAN VDW
  Discretization scheme                           ... Constant charge density
    Threshold for H atoms                         ...       5.0000 (charges/Ang^2)
    Threshold for non-H atoms                     ...       5.0000 (charges/Ang^2)
  Epsilon function type                           ...         CPCM
Solvent:                                          ... CUSTOM
Radii:
  Scheme                                          ... Element-dependent radii
  Radius for C  used is    3.8550 Bohr (=   2.0400 Ang.)
  Radius for H  used is    2.4944 Bohr (=   1.3200 Ang.)
  Radius for N  used is    3.5149 Bohr (=   1.8600 Ang.)
  Radius for Cu used is    3.1747 Bohr (=   1.6800 Ang.)
Calculating surface                               ...        done! (  0.0s)
Cavity surface points                             ...         1655
Cavity Volume                                     ...    1088.1942
Cavity Surface-area                               ...     617.6282
Calculating surface distance matrix               ...        done! (  0.0s)
Performing Cholesky decomposition & store         ...        done! (  0.1s)
Overall time for CPCM initialization              ...                 0.1s

----------------------------------------D-I-I-S--------------------------------------------
Iteration    Energy (Eh)           Delta-E    RMSDP     MaxDP     DIISErr   Damp  Time(sec)
-------------------------------------------------------------------------------------------
               ***  Starting incremental Fock matrix formation  ***
                              *** Initializing SOSCF ***
---------------------------------------S-O-S-C-F--------------------------------------
Iteration    Energy (Eh)           Delta-E    RMSDP     MaxDP     MaxGrad    Time(sec)
--------------------------------------------------------------------------------------
    1    -1967.0838756895168444     0.00e+00  6.46e-06  3.92e-05  1.79e-06     1.6
               *** Restarting incremental Fock matrix formation ***
    2    -1967.0838756895886945    -7.19e-11  2.05e-06  1.25e-05  2.41e-06     1.4
                  *** Gradient check signals convergence ***

               *****************************************************
               *                     SUCCESS                       *
               *           SCF CONVERGED AFTER   2 CYCLES          *
               *****************************************************

Recomputing exchange energy using gridx3       ... done (    1.548 sec)
Old exchange energy                            :    -22.289083197 Eh
New exchange energy                            :    -22.289080099 Eh
Exchange energy change after final integration :      0.000003098 Eh
Total energy after final integration           :  -1967.083872595 Eh
             **** ENERGY FILE WAS UPDATED (orca.en.tmp) ****

----------------
TOTAL SCF ENERGY
----------------

Total Energy       :      -1967.08387259510550 Eh          -53527.07344 eV

Components:
Nuclear Repulsion  :        615.79646000393859 Eh           16756.67357 eV
Electronic Energy  :      -2582.78441682479570 Eh          -70281.13701 eV
One Electron Energy:      -3935.21189956276066 Eh         -107082.55976 eV
Two Electron Energy:       1352.42748273796497 Eh           36801.42275 eV
CPCM Dielectric    :         -0.09591887214010 Eh              -2.61009 eV

Virial components:
Potential Energy   :      -3930.19563125997502 Eh         -106946.06016 eV
Kinetic Energy     :       1963.11175866486974 Eh           53418.98672 eV
Virial Ratio       :          2.00202337636291

DFT components:
N(Alpha)           :       43.000091534054 electrons
N(Beta)            :       43.000091534054 electrons
N(Total)           :       86.000183068108 electrons
E(X)               :      -88.844324184216 Eh       
E(C)               :       -3.857003520261 Eh       
E(XC)              :      -92.701327704478 Eh       

CPCM Solvation Model Properties:
Surface-charge          :         -1.03173248739426
Corrected charge        :         -1.00000000000000
Outlying charge corr.   :          0.00006193595924 Eh               0.00169 eV
Free-energy (cav+disp)  :  This term is not implemented in the current solvation scheme

---------------
SCF CONVERGENCE
---------------

  Last Energy change         ...    7.1850e-11  Tolerance :   1.0000e-08
  Last MAX-Density change    ...    1.2454e-05  Tolerance :   1.0000e-07
  Last RMS-Density change    ...    2.0477e-06  Tolerance :   5.0000e-09
  Last DIIS Error            ...    1.0439e-05  Tolerance :   5.0000e-07
  Last Orbital Gradient      ...    2.4128e-06  Tolerance :   1.0000e-05
  Last Orbital Rotation      ...    9.5216e-06  Tolerance :   1.0000e-05


----------------
ORBITAL ENERGIES
----------------

  NO   OCC          E(Eh)            E(eV) 
   0   2.0000    -323.071917     -8791.2338 
   1   2.0000     -38.867730     -1057.6447 
   2   2.0000     -34.072610      -927.1628 
   3   2.0000     -34.072202      -927.1518 
   4   2.0000     -34.071631      -927.1362 
   5   2.0000     -14.395185      -391.7129 
   6   2.0000     -10.305592      -280.4294 
   7   2.0000     -10.224419      -278.2206 
   8   2.0000     -10.208732      -277.7937 
   9   2.0000     -10.207883      -277.7706 
  10   2.0000     -10.202427      -277.6222 
  11   2.0000     -10.201843      -277.6063 
  12   2.0000     -10.201121      -277.5866 
  13   2.0000      -4.357915      -118.5849 
  14   2.0000      -2.856736       -77.7358 
  15   2.0000      -2.852517       -77.6209 
  16   2.0000      -2.845352       -77.4260 
  17   2.0000      -0.983856       -26.7721 
  18   2.0000      -0.891991       -24.2723 
  19   2.0000      -0.802498       -21.8371 
  20   2.0000      -0.779576       -21.2133 
  21   2.0000      -0.713228       -19.4079 
  22   2.0000      -0.642993       -17.4967 
  23   2.0000      -0.628553       -17.1038 
  24   2.0000      -0.586031       -15.9467 
  25   2.0000      -0.559127       -15.2146 
  26   2.0000      -0.524495       -14.2722 
  27   2.0000      -0.492131       -13.3916 
  28   2.0000      -0.482370       -13.1260 
  29   2.0000      -0.461632       -12.5616 
  30   2.0000      -0.451383       -12.2828 
  31   2.0000      -0.447167       -12.1680 
  32   2.0000      -0.399400       -10.8682 
  33   2.0000      -0.391143       -10.6436 
  34   2.0000      -0.380401       -10.3512 
  35   2.0000      -0.374066       -10.1789 
  36   2.0000      -0.350021        -9.5246 
  37   2.0000      -0.341222        -9.2851 
  38   2.0000      -0.338752        -9.2179 
  39   2.0000      -0.329457        -8.9650 
  40   2.0000      -0.291825        -7.9410 
  41   2.0000      -0.288923        -7.8620 
  42   2.0000      -0.268001        -7.2927 
  43   0.0000      -0.113691        -3.0937 
  44   0.0000      -0.052404        -1.4260 
  45   0.0000      -0.044501        -1.2109 
  46   0.0000      -0.035843        -0.9753 
  47   0.0000       0.011183         0.3043 
  48   0.0000       0.023111         0.6289 
  49   0.0000       0.042823         1.1653 
  50   0.0000       0.051417         1.3991 
  51   0.0000       0.070890         1.9290 
  52   0.0000       0.074155         2.0179 
  53   0.0000       0.088582         2.4104 
*Only the first 10 virtual orbitals were printed.
-------
TIMINGS
-------

Total SCF time: 0 days 0 hours 0 min 6 sec 

Total time                  ....       6.938 sec
Sum of individual times     ....       6.027 sec  ( 86.9%)

SCF preparation             ....       1.433 sec  ( 20.7%)
Fock matrix formation       ....       4.334 sec  ( 62.5%)
[...]
     41      -0.000012   0.000430  -0.004998  -0.000822   0.557763   0.538158
     42       0.000173  -0.000159   0.000374  -0.000116   0.099060  -0.087086
     43       0.000532  -0.000767   0.009222   0.001204   0.687021  -0.711204
     44       0.000382   0.000269  -0.003655  -0.000859  -0.013249   0.006275
     45      -0.000116   0.001608  -0.033652  -0.006526   0.000001   0.001694
     46      -0.023395   0.030670  -0.630970  -0.108499   0.002257  -0.009382
     47       0.029380  -0.036557   0.747355   0.127656   0.005189   0.013059
     48       0.001144  -0.000328   0.002111  -0.000504  -0.003831   0.000958
     49      -0.000093   0.000308  -0.005582  -0.000897   0.005208   0.001056
     50       0.000470  -0.000509   0.008351   0.001445   0.005209  -0.000346
     51       0.000010   0.000002   0.000009  -0.000005  -0.000005   0.000003
     52       0.000001   0.000004  -0.000031  -0.000006  -0.000019   0.000010
     53      -0.000008   0.000003  -0.000083  -0.000014  -0.000033   0.000001


-----------
IR SPECTRUM
-----------

 Mode   freq       eps      Int      T**2         TX        TY        TZ
       cm**-1   L/(mol*cm) km/mol    a.u.
----------------------------------------------------------------------------
  7:     42.25   0.000376    1.90  0.002777  (-0.021939  0.042189 -0.022704)
  8:     80.55   0.000355    1.79  0.001375  ( 0.006830 -0.036346  0.002667)
  9:    164.61   0.001866    9.43  0.003538  (-0.035869 -0.044720  0.015871)
 10:    230.00   0.003136   15.85  0.004254  ( 0.053603 -0.003929 -0.036957)
 11:    261.77   0.000387    1.95  0.000461  (-0.000224 -0.001646  0.021409)
 12:    357.32   0.008421   42.56  0.007355  ( 0.067978  0.003626 -0.052160)
 13:    408.83   0.001501    7.59  0.001146  ( 0.031282  0.011722 -0.005456)
 14:    422.12   0.017150   86.67  0.012679  (-0.100834 -0.030624  0.039669)
 15:    488.88   0.006957   35.16  0.004441  ( 0.065572 -0.005044 -0.010759)
 16:    524.09   0.009436   47.69  0.005619  ( 0.054325  0.024275 -0.045588)
 17:    580.76   0.006087   30.76  0.003271  (-0.029330  0.042000  0.025432)
 18:    631.75   0.018978   95.90  0.009374  (-0.063178 -0.053023 -0.050709)
 19:    634.59   0.017234   87.09  0.008475  ( 0.062159  0.041463  0.053777)
 20:    691.38   0.044325  224.00  0.020007  ( 0.126983 -0.013658  0.060791)
 21:    709.50   0.025370  128.21  0.011159  (-0.078035  0.068618  0.018994)
 22:    792.01   0.002406   12.16  0.000948  ( 0.005524 -0.016471 -0.025421)
 23:    808.23   0.004222   21.34  0.001630  (-0.039030  0.001104  0.010275)
 24:    855.60   0.000050    0.25  0.000018  (-0.002325 -0.002978 -0.001962)
 25:    945.46   0.000370    1.87  0.000122  (-0.006757  0.005110  0.007096)
 26:    988.70   0.000050    0.25  0.000016  ( 0.002260  0.001208  0.003018)
 27:   1016.38   0.000026    0.13  0.000008  (-0.001585 -0.001780 -0.001537)
 28:   1021.68   0.000391    1.97  0.000119  ( 0.010756  0.001748  0.000758)
 29:   1048.13   0.001746    8.82  0.000520  ( 0.007221  0.020202  0.007724)
 30:   1093.66   0.007685   38.84  0.002193  (-0.012804  0.041467  0.017587)
 31:   1103.15   0.006309   31.89  0.001785  ( 0.009618 -0.012487 -0.039197)
 32:   1139.94   0.005788   29.25  0.001584  (-0.035887  0.016058  0.006221)
 33:   1179.47   0.002924   14.78  0.000774  (-0.014502  0.011015  0.021022)
 34:   1182.91   0.000378    1.91  0.000100  (-0.008631  0.002484  0.004363)
 35:   1203.44   0.000869    4.39  0.000225  (-0.009431 -0.010401 -0.005313)
 36:   1246.03   0.017323   87.54  0.004338  (-0.033353 -0.047212 -0.031578)
 37:   1336.34   0.002141   10.82  0.000500  (-0.016647 -0.011502 -0.009511)
 38:   1365.66   0.001164    5.88  0.000266  (-0.004569 -0.015047  0.004327)
 39:   1433.82   0.011524   58.24  0.002508  ( 0.030292  0.037718  0.012958)
 40:   1492.56   0.004240   21.43  0.000887  (-0.014309  0.003243 -0.025910)
 41:   1533.04   0.000261    1.32  0.000053  ( 0.003661  0.003016 -0.005526)
 42:   1620.33   0.017859   90.25  0.003439  ( 0.000676  0.030673  0.049982)
 43:   1623.09   0.001056    5.34  0.000203  ( 0.005887  0.010756  0.007260)
 44:   1639.41   0.002863   14.47  0.000545  (-0.016566 -0.015312 -0.006010)
 45:   1774.33   0.008135   41.11  0.001431  ( 0.004749  0.027371  0.025670)
 46:   3167.79   0.001113    5.63  0.000110  ( 0.007440  0.004791  0.005601)
 47:   3174.20   0.000365    1.85  0.000036  (-0.001744 -0.004470  0.003593)
 48:   3183.40   0.000425    2.15  0.000042  (-0.003568 -0.005254 -0.001166)
 49:   3192.72   0.002830   14.30  0.000277  (-0.003291  0.006348 -0.015017)
 50:   3199.70   0.000453    2.29  0.000044  ( 0.006127 -0.002580 -0.000151)
 51:   3201.51   0.001891    9.56  0.000184  (-0.010431 -0.008568 -0.001447)
 52:   3526.74   0.025076  126.72  0.002219  (-0.017003  0.031259  0.030864)
 53:   3627.23   0.022361  113.00  0.001924  (-0.015786 -0.037207  0.017037)

* The epsilon (eps) is given for a Dirac delta lineshape.
** The dipole moment derivative (T) already includes vibrational overlap.

The first frequency considered to be a vibration is 7
The total number of vibrations considered is 47


--------------------------
THERMOCHEMISTRY AT 298.15K
--------------------------

Temperature         ...   298.15 K
Pressure            ...     1.00 atm
Total Mass          ...   170.71 AMU
Quasi RRHO          ...     True
Cut-Off Frequency   ...     1.00 cm^-1

Throughout the following assumptions are being made:
  (1) The electronic state is orbitally nondegenerate
  (2) There are no thermally accessible electronically excited states
  (3) Hindered rotations indicated by low frequency modes are not
      treated as such but are treated as vibrations and this may
      cause some error
  (4) All equations used are the standard statistical mechanics
      equations for an ideal gas
  (5) All vibrations are strictly harmonic

freq.      42.25  E(vib)   ...       0.53 
freq.      80.55  E(vib)   ...       0.48 
freq.     164.61  E(vib)   ...       0.39 
freq.     230.00  E(vib)   ...       0.32 
freq.     261.77  E(vib)   ...       0.30 
freq.     357.32  E(vib)   ...       0.22 
freq.     408.83  E(vib)   ...       0.19 
freq.     422.12  E(vib)   ...       0.18 
freq.     488.88  E(vib)   ...       0.15 
freq.     524.09  E(vib)   ...       0.13 
freq.     580.76  E(vib)   ...       0.11 
freq.     631.75  E(vib)   ...       0.09 
freq.     634.59  E(vib)   ...       0.09 
freq.     691.38  E(vib)   ...       0.07 
freq.     709.50  E(vib)   ...       0.07 
freq.     792.01  E(vib)   ...       0.05 
freq.     808.23  E(vib)   ...       0.05 
freq.     855.60  E(vib)   ...       0.04 
freq.     945.46  E(vib)   ...       0.03 
freq.     988.70  E(vib)   ...       0.02 
freq.    1016.38  E(vib)   ...       0.02 
freq.    1021.68  E(vib)   ...       0.02 
freq.    1048.13  E(vib)   ...       0.02 
freq.    1093.66  E(vib)   ...       0.02 
freq.    1103.15  E(vib)   ...       0.02 
freq.    1139.94  E(vib)   ...       0.01 
freq.    1179.47  E(vib)   ...       0.01 
freq.    1182.91  E(vib)   ...       0.01 
freq.    1203.44  E(vib)   ...       0.01 
freq.    1246.03  E(vib)   ...       0.01 
freq.    1336.34  E(vib)   ...       0.01 
freq.    1365.66  E(vib)   ...       0.01 
freq.    1433.82  E(vib)   ...       0.00 
freq.    1492.56  E(vib)   ...       0.00 
freq.    1533.04  E(vib)   ...       0.00 
freq.    1620.33  E(vib)   ...       0.00 
freq.    1623.09  E(vib)   ...       0.00 
freq.    1639.41  E(vib)   ...       0.00 
freq.    1774.33  E(vib)   ...       0.00 
freq.    3167.79  E(vib)   ...       0.00 
freq.    3174.20  E(vib)   ...       0.00 
freq.    3183.40  E(vib)   ...       0.00 
freq.    3192.72  E(vib)   ...       0.00 
freq.    3199.70  E(vib)   ...       0.00 
freq.    3201.51  E(vib)   ...       0.00 
freq.    3526.74  E(vib)   ...       0.00 
freq.    3627.23  E(vib)   ...       0.00 

------------
INNER ENERGY
------------

The inner energy is: U= E(el) + E(ZPE) + E(vib) + E(rot) + E(trans)
    E(el)   - is the total energy from the electronic structure calculation
              = E(kin-el) + E(nuc-el) + E(el-el) + E(nuc-nuc)
    E(ZPE)  - the the zero temperature vibrational energy from the frequency calculation
    E(vib)  - the the finite temperature correction to E(ZPE) due to population
              of excited vibrational states
    E(rot)  - is the rotational thermal energy
    E(trans)- is the translational thermal energy

Summary of contributions to the inner energy U:
Electronic energy                ...  -1967.12210721 Eh
Zero point energy                ...      0.14112120 Eh      88.55 kcal/mol
Thermal vibrational correction   ...      0.00587665 Eh       3.69 kcal/mol
Thermal rotational correction    ...      0.00141627 Eh       0.89 kcal/mol
Thermal translational correction ...      0.00141627 Eh       0.89 kcal/mol
-----------------------------------------------------------------------
Total thermal energy                  -1966.97227682 Eh


Summary of corrections to the electronic energy:
(perhaps to be used in another calculation)
Total thermal correction                  0.00870919 Eh       5.47 kcal/mol
Non-thermal (ZPE) correction              0.14112120 Eh      88.55 kcal/mol
-----------------------------------------------------------------------
Total correction                          0.14983039 Eh      94.02 kcal/mol


--------
ENTHALPY
--------

The enthalpy is H = U + kB*T
                kB is Boltzmann's constant
Total thermal energy              ...  -1966.97227682 Eh 
Thermal Enthalpy correction       ...      0.00094421 Eh       0.59 kcal/mol
-----------------------------------------------------------------------
Total Enthalpy                    ...  -1966.97133261 Eh


Note: Only C1 symmetry has been detected, increase convergence thresholds 
      if your molecule has a higher symmetry. Symmetry factor of 1.0 is   
      used for the rotational entropy correction. 
 

Note: Rotational entropy computed according to Herzberg 
Infrared and Raman Spectra, Chapter V,1, Van Nostrand Reinhold, 1945 
Point Group:  C1, Symmetry Number:   1  
Rotational constants in cm-1:     0.104197     0.020462     0.019531 

Vibrational entropy computed according to the QRRHO of S. Grimme
Chem.Eur.J. 2012 18 9955 using a reference frequency of 100.0 cm-1


-------
ENTROPY
-------

The entropy contributions are T*S = T*(S(el)+S(vib)+S(rot)+S(trans))
     S(el)   - electronic entropy
     S(vib)  - vibrational entropy
     S(rot)  - rotational entropy
     S(trans)- translational entropy
The entropies will be listed as multiplied by the temperature to get
units of energy

Electronic entropy                ...      0.00000000 Eh      0.00 kcal/mol
Vibrational entropy               ...      0.00984151 Eh      6.18 kcal/mol
Rotational entropy                ...      0.01427251 Eh      8.96 kcal/mol
Translational entropy             ...      0.01962863 Eh     12.32 kcal/mol
-----------------------------------------------------------------------
Final entropy term                ...      0.04374265 Eh     27.45 kcal/mol

In case the symmetry of your molecule has not been determined correctly
or in case you have a reason to use a different symmetry number we print 
out the resulting rotational entropy values for sn=1,12:

 non-linear molecules -----------------------------------
|  sn= 1 | S(rot)=       0.01427251 Eh      8.96 kcal/mol|
|  sn= 2 | S(rot)=       0.01361806 Eh      8.55 kcal/mol|
|  sn= 3 | S(rot)=       0.01323522 Eh      8.31 kcal/mol|
|  sn= 4 | S(rot)=       0.01296360 Eh      8.13 kcal/mol|
|  sn= 5 | S(rot)=       0.01275291 Eh      8.00 kcal/mol|
|  sn= 6 | S(rot)=       0.01258077 Eh      7.89 kcal/mol|
|  sn= 7 | S(rot)=       0.01243522 Eh      7.80 kcal/mol|
|  sn= 8 | S(rot)=       0.01230914 Eh      7.72 kcal/mol|
|  sn= 9 | S(rot)=       0.01219793 Eh      7.65 kcal/mol|
|  sn=10 | S(rot)=       0.01209845 Eh      7.59 kcal/mol|
|  sn=11 | S(rot)=       0.01200846 Eh      7.54 kcal/mol|
|  sn=12 | S(rot)=       0.01192631 Eh      7.48 kcal/mol|
 linear molecules ---------------------------------------
|  Dinfh | S(rot)=       0.00904185 Eh      5.67 kcal/mol|
|  Cinfv | S(rot)=       0.00969631 Eh      6.08 kcal/mol|
 --------------------------------------------------------


-------------------
GIBBS FREE ENERGY
-------------------

The Gibbs free energy is G = H - T*S

Total enthalpy                    ...  -1966.97133261 Eh 
Total entropy correction          ...     -0.04374265 Eh    -27.45 kcal/mol
-----------------------------------------------------------------------
Final Gibbs free energy         ...  -1967.01507525 Eh

For completeness - the Gibbs free energy minus the electronic energy
G-E(el)                           ...      0.10703196 Eh     67.16 kcal/mol


Maximum memory used throughout the entire PROP-calculation: 110.6 MB

--------------------------------
SUGGESTED CITATIONS FOR THIS RUN
--------------------------------

Below you find a list of papers that are relevant to this ORCA run
We neither can nor want to force you to cite these papers, but we appreciate if you do
You receive ORCA, which is the product of decades of hard work by many enthusiastic individuals, for free
The only thing we kindly ask in return is that you cite our papers,
We deeply appreciate it, if you show your appreciation for ORCA by not just citing the generic ORCA reference.

Please note that relegating all ORCA citations to the supporting information does *not* help us.
SI sections are not indexed - citations you put there will not count into any citation statistics
But we need these citations in order to attract the funding resources that allow us to do what we are doing

Therefore, if you are a happy ORCA user, please consider citing a few of the papers listed below in the main body of your paper

In addition to the list printed below, the program has created the file orca.bibtex that contains the list in bibtex format
You can import this file easily into all common literature databanks and citation aid programs


List of essential papers. We consider these as the minimum necessary citations

  1. Neese, F.
     Software update: the ORCA program system, version 6.0
     WIRES Comput. Molec. Sci. 2025 15(1), e70019
     doi.org/10.1002/wcms.7019

List of papers to cite with high priority. The work reported in these papers was absolutely
necessary for this run to complete.
Our perspective: the developers of density functionals and basis sets usually get cited in chemistry papers
Good! But without the algorithms to do something with them, the functionals or basis sets would not do anything.
Hence, in our opinion, the algorithm design and method developments papers are equally worthy of getting cited

  1. Neese, F.
     An improvement of the resolution of the identity approximation for the formation of the Coulomb matrix
     J. Comp. Chem. 2003 24(14), 1740-1747
     doi.org/10.1002/jcc.10318
  2. Neese, F.; Wennmohs, F.; Hansen, A.; Becker, U.
     Efficient, approximate and parallel Hartree-Fock and hybrid DFT calculations. A 'chain-of-spheres' algorithm for the Hartree-Fock exchange
     Chem. Phys. 2009 356(1-3), 98-109
     doi.org/10.1016/j.chemphys.2008.10.036
  3. Grimme, S.; Antony, J.; Ehrlich, S.; Krieg, H.
     A consistent and accurate ab initio parametrization of density functional dispersion correction (DFT-D) for the 94 elements H-Pu
     J. Chem. Phys. 2010 132 , 154104
     doi.org/10.1063/1.3382344
  4. Grimme, S.; Ehrlich, S.; Goerigk, L.
     Effect of the damping function in dispersion corrected density functional theory
     J. Comput. Chem. 2011 32(7), 1456-1465
     doi.org/10.1002/jcc.21759
  5. Bykov, D.; Petrenko, T.; Izsak, R.; Kossmann, S.; Becker, U.; Valeev, E.; Neese, F.
     Efficient implementation of the analytic second derivatives of Hartree-Fock and hybrid DFT energies: a detailed analysis of different approximations
     Molec. Phys. 2015 113 , 1961-1977
     doi.org/10.1080/00268976.2015.1025114
  6. Garcia-Rates, M.; Neese, F.
     Efficient implementation of the analytical second derivatives of hartree-fock and hybrid DFT energies within the framework of the conductor-like polarizable continuum model
     J. Comput. Chem. 2019 40 , 1816-1828
     doi.org/10.1002/jcc.25833
  7. Garcia-Rates, M.; Neese, F.
     Effect of the Solute Cavity on the Solvation Energy and its Derivatives within the Framework of the Gaussian Charge Scheme
     J. Comput. Chem. 2020 41 , 922-939
     doi.org/10.1002/jcc.26139
  8. Asgeirsson, V.; Orri Birgisson, B.; Björnsson, R.; Becker, U.; Neese, F.; Riplinger, C.; Jonsson, H.
     Nudged Elastic Band Method for Molecular Reactions Using Energy-Weighted Springs Combined with Eigenvector Following
     J. Chem. Theory Comput. 2021 17(8), 4929-4945
     doi.org/10.1021/acs.jctc.1c00462
  9. Helmich-Paris, B.; de Souza, B.; Neese, F.; Izsák, R.
     An improved chain of spheres for exchange algorithm
     J. Chem. Phys. 2021 155(10), 104109
     doi.org/10.1063/5.0058766
 10. Neese, F.
     The SHARK Integral Generation and Digestion System
     J. Comp. Chem. 2022 44(3), 381
     doi.org/10.1002/jcc.26942
 11. Schmerwitz, Y.L.A.; Asgeirsson, V.; Jonsson, H.
     Improved Initialization of Optimal Path Calculations
     Using Sequential Traversal over the
     Image-Dependent Pair Potential Surface
     J. Chem. Theory Comput. 2023 20(1), 155-163
     doi.org/10.1021/acs.jctc.3c01111

List of suggested additional citations. These are papers that are important in the 'surrounding' of 
of this run, or papers that preceded the highly important papers. If you like your results we are grateful for a citation.

  1. Izsak, R.; Neese, F.
     An overlap fitted chain of spheres exchange method
     J. Chem. Phys. 2011 135 , 144105
     doi.org/10.1063/1.3646921
  2. Izsak, R.; Hansen, A.; Neese, F.
     The resolution of identity and chain of spheres approximations for the LPNO-CCSD singles Fock term
     Molec. Phys. 2012 110 , 2413-2417
     doi.org/10.1080/00268976.2012.687466
  3. Neese, F.
     The ORCA program system
     WIRES Comput. Molec. Sci. 2012 2(1), 73-78
     doi.org/10.1002/wcms.81
  4. Izsak, R.; Neese, F.; Klopper, W.
     Robust fitting techniques in the chain of spheres approximation to the Fock exchange: The role of the complementary space
     J. Chem. Phys. 2013 139 , 
     doi.org/10.1063/1.4819264
  5. Neese, F.
     Software update: the ORCA program system, version 4.0
     WIRES Comput. Molec. Sci. 2018 8(1), 1-6
     doi.org/10.1002/wcms.1327
  6. Neese, F.; Wennmohs, F.; Becker, U.; Riplinger, C.
     The ORCA quantum chemistry program package
     J. Chem. Phys. 2020 152(22), 224108
     doi.org/10.1063/5.0004608
  7. Neese, F.
     Software update: The ORCA program system—Version 5.0
     WIRES Comput. Molec. Sci. 2022 12(1), e1606
     doi.org/10.1002/wcms.1606

List of optional additional citations

  1. Neese, F.
     Approximate second-order SCF convergence for spin unrestricted wavefunctions
     Chem. Phys. Lett. 2000 325(1-3), 93-98
     doi.org/10.1016/s0009-2614(00)00662-x

Timings for individual modules:

Sum of individual times          ...    62760.725 sec (=1046.012 min)
Startup calculation              ...       99.037 sec (=   1.651 min)   0.2 %
SCF iterations                   ...      486.075 sec (=   8.101 min)   0.8 %
Property integrals               ...      157.219 sec (=   2.620 min)   0.3 %
SCF Response                     ...       76.553 sec (=   1.276 min)   0.1 %
Property calculations            ...       77.161 sec (=   1.286 min)   0.1 %
SCF Gradient evaluation          ...      184.787 sec (=   3.080 min)   0.3 %
Geometry relaxation              ...        0.267 sec (=   0.004 min)   0.0 %
NEB Iterations                   ...    61679.625 sec (=1027.994 min)  98.3 %
                             ****ORCA TERMINATED NORMALLY****
TOTAL RUN TIME: 0 days 17 hours 24 minutes 16 seconds 4 msec
