
                                 *****************
                                 * O   R   C   A *
                                 *****************

                                            #,                                       
                                            ###                                      
                                            ####                                     
                                            #####                                    
                                            ######                                   
                                           ########,                                 
                                     ,,################,,,,,                         
                               ,,#################################,,                 
                          ,,##########################################,,             
                       ,#########################################, ''#####,          
                    ,#############################################,,   '####,        
                  ,##################################################,,,,####,       
                ,###########''''           ''''###############################       
              ,#####''   ,,,,##########,,,,          '''####'''          '####       
            ,##' ,,,,###########################,,,                        '##       
           ' ,,###''''                  '''############,,,                           
         ,,##''                                '''############,,,,        ,,,,,,###''
      ,#''                                            '''#######################'''  
     '                                                          ''''####''''         
             ,#######,   #######,   ,#######,      ##                                
            ,#'     '#,  ##    ##  ,#'     '#,    #''#        ,####,    ,#,          
            ##       ##  ##   ,#'  ##            #'  '#       #'       ,# #          
            ##       ##  #######   ##           ,######,      #####,      #          
            '#,     ,#'  ##    ##  '#,     ,#' ,#      #,     #,   #      #          
             '#######'   ##     ##  '#######'  #'      '#     '####' #    #          



                #########################################################
                #                        -***-                          #
                #          Department of theory and spectroscopy        #
                #                                                       #
                #                      Frank Neese                      #
                #                                                       #
                #     Directorship, Architecture, Infrastructure        #
                #                    SHARK, DRIVERS                     #
                #        Core code/Algorithms in most modules           #
                #                                                       #
                #        Max Planck Institute fuer Kohlenforschung      #
                #                Kaiser Wilhelm Platz 1                 #
                #                 D-45470 Muelheim/Ruhr                 #
                #                      Germany                          #
                #                                                       #
                #                  All rights reserved                  #
                #                        -***-                          #
                #########################################################


                         Program Version 6.1.0-f.0  -   RELEASE   -


 With contributions from (in alphabetic order):
[Max-Planck-Institut fuer Kohlenforschung]                               
  Daniel Aravena         : Magnetic Suceptibility                        
  Michael Atanasov       : Ab Initio Ligand Field Theory (pilot matlab implementation)
  Alexander A. Auer      : GIAO ZORA, VPT2 properties, NMR spectrum      
  Ute Becker             : All parallelization in ORCA, NUMFREQ, NUMCALC 
  Giovanni Bistoni       : ED, misc. LED, open-shell LED, HFLD           
  Dmytro Bykov           : pre 5.0 version of the SCF Hessian            
  Marcos Casanova-Páez   : Triplet and SCS-CIS(D). UHF-(DLPNO)-IP/EA/STEOM-CCSD. UHF-CVS-IP/STEOM-CCSD   
  Vijay G. Chilkuri      : MRCI spin determinant printing, contributions to CSF-ICE 
  Pauline Colinet        : FMM embedding                                 
  Dipayan Datta          : RHF DLPNO-CCSD density                        
  Achintya Kumar Dutta   : EOM-CC, STEOM-CC                              
  Nicolas Foglia         : Exact transition moments, OPA infrastructure, MCD improvements    
  Dmitry Ganyushin       : Spin-Orbit,Spin-Spin,Magnetic field MRCI      
  Miquel Garcia-Rates    : C-PCM and meta-GGA Hessian, CCSD/C-PCM, Gaussian charge scheme 
  Tiago L. C. Gouveia    : GS-ROHF, GS-ROCIS                             
  Yang Guo               : DLPNO-NEVPT2, F12-NEVPT2, CIM, IAO-localization        
  Andreas Hansen         : Spin unrestricted coupled pair/coupled cluster methods 
  Ingolf Harden          : AUTO-CI MPn and infrastructure                
  Benjamin Helmich-Paris : MC-RPA, TRAH-(SCF,CASSCF), AVAS, COSX integrals, SCF dyn. polar., MC-PDFT, srDFT 
  Lee Huntington         : MR-EOM, pCC                                   
  Robert Izsak           : Overlap fitted RIJCOSX, COSX-SCS-MP3, EOM     
  Riya Kayal             : Wick's Theorem for AUTO-CI, AUTO-CI UHF-CCSDT 
  Emily Kempfer          : AUTO-CI RHF CISDT and CCSDT, approximate NEVPT4
  Christian Kollmar      : KDIIS, OOCD, Brueckner-CCSD(T), CCSD density, CASPT2, CASPT2-K, improved NEVPT2 
  Axel Koslowski         : Symmetry handling                             
  Simone Kossmann        : meta-GGA functionals, TD-DFT gradient, OOMP2, (MP2 Hessian; deprecated post 5.0) 
  Lucas Lang             : DCDCAS, Hyperfine gauge corrections, ICE-SOC+SSC
  Marvin Lechner         : AUTO-CI (C++ implementation), FIC-MRCC        
  Spencer Leger          : CASSCF response                               
  Dagmar Lenk            : GEPOL surface, SMD, ORCA-2-JSON               
  Dimitrios Liakos       : Extrapolation schemes; Compound Job, Property file
  Dimitrios Manganas     : Further ROCIS development; embedding schemes. LFT, Crystal Embedding 
  Dimitrios Pantazis     : SARC Basis sets                               
  Anastasios Papadopoulos: AUTO-CI, single reference methods and gradients 
  Taras Petrenko         : pre 6.0 DFT Hessian and TD-DFT gradient,  ECA, NRVS 
  Petra Pikulova         : Analytic Raman intensities                    
  Peter Pinski           : DLPNO-MP2, DLPNO-MP2 Gradient                 
  Shashank Vittal Rao    : ES-AILFT, MagRelax                            
  Christoph Reimann      : Effective Core Potentials                     
  Marius Retegan         : Local ZFS, SOC                                
  Christoph Riplinger    : Optimizer, TS searches, QM/MM, DLPNO-CCSD(T), (RO)-DLPNO pert. Triples 
  Michael Roemelt        : Original ROCIS implementation, recursive CI coupling coefficients
  Masaaki Saitow         : Open-shell DLPNO-CCSD energy and density      
  Barbara Sandhoefer     : DKH picture change effects                    
  Yorick L. A. Schmerwitz: GMF and freeze-and-release deltaSCF, NEB S-IDPP initial path                    
  Kantharuban Sivalingam : CASSCF convergence/infrastructure, NEVPT2, NEVPT3, NEVPT4(SD), FIC-MRCI and CEPA variants
  Bernardo de Souza      : ESD, SOC TD-DFT                               
  Georgi L. Stoychev     : AutoAux, RI-MP2 NMR, DLPNO-MP2 response, X2C  
  Van Anh Tran           : RI-MP2 g-tensors                              
  Willem Van den Heuvel  : Paramagnetic NMR                              
  Zikuan Wang            : NOTCH, Electric field optimization            
  Frank Wennmohs         : Technical directorship and infrastructure     
  Hang Xu                : AUTO-CI-Response properties                   
                                                                         
[FACCTs GmbH]                                                            
  Markus Bursch, Nicolas Foglia, Miquel Garcia-Rates, Ingolf Harden, Hagen Neugebauer, Anastasios Papadopoulos, 
  Christoph Riplinger, Bernardo de Souza, Georgi L. Stoychev                                                    
                                                                 
  APM, various basis sets, CI-OPT, improved COSX, DLPNO-Multilevel,           
  DOCKER, DRACO, updates on ESD, Fragmentator, GOAT, IRC, LR-CPCM, L-BFGS, MBIS, meta-GGA TD-DFT gradient, ML-optimized integration grids, 
  MM, NACMEs, nearIR, NEB, NEB-TS, NL-DFT gradient (VV10), 2- and 3-layer-ONIOM, interface openCOSMO-RS, QMMM,   
  Crystal-QMMM, RESP, rigid body optimization, SF, symmetry and pop. for TD-DFT, various functionals, SOLVATOR                                   
                                                                         
[Other institutions]                                                     
  V. Asgeirsson          : NEB                                           
  Christoph Bannwarth    : sTDA-DFT, sTD-DFT, PBEh-3c, B97-3c, D3        
  Giovanni Bistoni       : ETS/NOCV, ADLD/ADEX, COVALED                  
  Martin Brehm           : Molecular dynamics                            
  Ronald Cardenas        : ETS/NOCV                                      
  Martina Colucci        : COVALED                                       
  Sebastian Ehlert       : rSCAN, r2SCAN, r2SCAN-3c, D4, dhf basis sets  
  Marvin Friede          : D4 for Fr, Ra, Ac-Lr                          
  Lars Goerigk           : TD-DFT with DH, B97 family of functionals     
  Stefan Grimme          : VdW corrections, initial TS optimization, DFT functionals, gCP, sTDA/sTD-DF 
  Waldemar Hujo          : DFT-NL                                        
  H. Jonsson             : NEB                                           
  Holger Kruse           : gCP                                           
  Marcel Mueller         : wB97X-3c, vDZP basis set                      
  Hagen Neugebauer       : wr2SCAN, Native XTB                           
  Gianluca Regni         : ADLD/ADEX                                     
  Tobias Risthaus        : pre 6.0 range-separated hybrid DFT and stability analysis
  Lukas Wittmann         : regularized MP2, r2SCAN double-hybrids, wr2SCAN        
                                                                         
We gratefully acknowledge several colleagues who have allowed us to      
interface, adapt or use parts of their codes:                            
  Ed Valeev, F. Pavosevic, A. Kumar             : LibInt (2-el integral package), F12 methods 
  Garnet Chan, S. Sharma, J. Yang, R. Olivares  : DMRG                   
  Ulf Ekstrom                                   : XCFun DFT Library      
  Mihaly Kallay                                 : mrcc  (arbitrary order and MRCC methods)
  Frank Weinhold                                : gennbo (NPA and NBO analysis)           
  Simon Mueller                                 : openCOSMO-RS                            
  Christopher J. Cramer and Donald G. Truhlar   : smd solvation model                     
  S Lehtola, MJT Oliveira, MAL Marques          : LibXC Library                           
  Liviu Ungur et al                             : ANISO software                          


 Your calculation uses the libint2 library for the computation of 2-el integrals
 For citations please refer to: http://libint.valeyev.net

 Your ORCA version has been built with support for libXC version: 7.0.0
 For citations please refer to: https://libxc.gitlab.io

 This ORCA versions uses:
   CBLAS   interface :  Fast vector & matrix operations
   LAPACKE interface :  Fast linear algebra routines
   SCALAPACK package :  Parallel linear algebra routines
   Shared memory     :  Shared parallel matrices
   BLAS/LAPACK       :  OpenBLAS 0.3.29  USE64BITINT DYNAMIC_ARCH NO_AFFINITY Zen SINGLE_THREADED
        Core in use  :  Zen
   Copyright (c) 2011-2014, The OpenBLAS Project


  ***********************************
  * Starting time: Tue Oct 14 08:38:38 2025
  * Host name:     mc093.hpc.nesi.org.nz
  * Process ID:    720956
  * Working dir.:  /nesi/nobackup/nesi99999/geoffreyweal/ORCA_tutorial/Step4B_Validate_Forwards_and_Backwards/Forwards
  ***********************************

NOTE: MaxCore=2000 MB was set to SCF,MP2,MDCI,CIPSI,MRCI,RASCI and CIS
      => If you want to overwrite this, your respective input block should be placed after the MaxCore statement


***************************************
The coordinates will be read from file: orca_IRC_F.xyz
***************************************


Your calculation utilizes the atom-pairwise dispersion correction
with the Becke-Johnson damping scheme (D3BJ)


Warning: RI is on but no J-basis has been assigned. Assigning Def2/J (nothing to worry about!)
================================================================================

----- Orbital basis set information -----
Your calculation utilizes the basis: def2-TZVP
   F. Weigend and R. Ahlrichs, Phys. Chem. Chem. Phys. 7, 3297 (2005).

----- AuxJ basis set information -----
Your calculation utilizes the auxiliary basis: def2/J
   H-Rn: F. Weigend, Phys. Chem. Chem. Phys. 8, 1057 (2006).
   Fr-Lr: K. Eichkorn, F. Weigend, O. Treutler, R. Ahlrichs; Theor. Chem. Acc. 97, 119 (1997).

================================================================================
                                        WARNINGS
                       Please study these warnings very carefully!
================================================================================


WARNING: Geometry Optimization
  ===> : Switching off AutoStart
         For restart on a previous wavefunction, please use MOREAD

================================================================================
                                       INPUT FILE
================================================================================
NAME = orca.inp
|  1> !B3LYP DEF2-TZVP D3BJ 
|  2> !OPT FREQ TightOPT TightSCF defgrid2
|  3> %SCF
|  4>     MaxIter 2000       # Here setting MaxIter to a very high number. Intended for systems that require sometimes 1000 iterations before converging (very rare).
|  5>     DIISMaxEq 5        # Default value is 5. A value of 15-40 necessary for difficult systems.
|  6>     directresetfreq 15 # Default value is 15. A value of 1 (very expensive) is sometimes required. A value between 1 and 15 may be more cost-effective.
|  7> END
|  8> %CPCM EPSILON 6.02 REFRAC 1.3723 END
|  9> %PAL NPROCS 32 END
| 10> %maxcore 2000 # This indicates you want ORCA to use only 2GB per core maximum, so ORCA will use only 2GB*32=64GB of memory in total.
| 11> * xyzfile 1 1 orca_IRC_F.xyz
| 12> 
| 13> 
| 14>                          ****END OF INPUT****
================================================================================

                       *****************************
                       * Geometry Optimization Run *
                       *****************************

Geometry optimization settings:
Update method            Update   .... BFGS
Choice of coordinates    CoordSys .... (2022) Redundant Internals
Initial Hessian          InHess   .... Almloef's Model
Max. no of cycles        MaxIter  .... 54

Convergence Tolerances:
Energy Change            TolE     ....  1.0000e-06 Eh
Max. Gradient            TolMAXG  ....  1.0000e-04 Eh/bohr
RMS Gradient             TolRMSG  ....  3.0000e-05 Eh/bohr
Max. Displacement        TolMAXD  ....  1.0000e-03 bohr
RMS Displacement         TolRMSD  ....  6.0000e-04 bohr
Strict Convergence                .... False

------------------------------------------------------------------------------
                        ORCA OPTIMIZATION COORDINATE SETUP
------------------------------------------------------------------------------

The optimization will be done in redundant internal coordinates (2022)
Making redundant internal coordinates   ...  (2022 redundants) done
Evaluating the initial hessian          ...  (Almloef) done
Evaluating the coordinates              ...  done
Calculating the B-matrix                .... done
Calculating the G-matrix                .... done
The number of degrees of freedom        ....   97

    -----------------------------------------------------------------
                    Redundant Internal Coordinates


    -----------------------------------------------------------------
         Definition                    Initial Value    Approx d2E/dq
    -----------------------------------------------------------------
      1. B(C   1,C   0)                  1.3844         0.637674   
      2. B(C   2,C   1)                  1.4030         0.595576   
      3. B(C   3,C   2)                  1.4054         0.590418   
      4. B(C   4,C   3)                  1.3808         0.646216   
      5. B(C   5,C   4)                  1.3966         0.609764   
      6. B(C   5,C   0)                  1.3917         0.620871   
      7. B(H   6,C   0)                  1.0814         0.371702   
      8. B(H   7,C   5)                  1.0820         0.370871   
      9. B(H   8,C   1)                  1.0826         0.370057   
     10. B(H   9,C   3)                  1.0829         0.369672   
     11. B(H  10,C   4)                  1.0816         0.371320   
     12. B(C  11,C   2)                  1.4394         0.521064   
     13. B(N  12,C  11)                  1.3599         0.625127   
     14. B(H  13,N  12)                  1.0140         0.426461   
     15. B(H  14,N  12)                  1.0141         0.426211   
     16. B(H  15,C  11)                  1.0833         0.369025   
     17. B(Cu 17,H  16)                  1.5065         0.789032   
     18. B(Cu 17,N  12)                  2.0765         0.454665   
     19. B(Cu 17,C  11)                  2.0467         0.566485   
     20. A(C   5,C   0,H   6)          120.2884         0.354894   
     21. A(C   1,C   0,H   6)          119.9052         0.356506   
     22. A(C   1,C   0,C   5)          119.8051         0.436379   
     23. A(C   2,C   1,H   8)          119.4262         0.352139   
     24. A(C   0,C   1,H   8)          120.5725         0.356238   
     25. A(C   0,C   1,C   2)          119.9901         0.433124   
     26. A(C   3,C   2,C  11)          123.1117         0.417101   
     27. A(C   1,C   2,C   3)          119.8386         0.427178   
     28. A(C   1,C   2,C  11)          117.0091         0.417748   
     29. A(C   4,C   3,H   9)          119.4088         0.356981   
     30. A(C   2,C   3,H   9)          120.8700         0.351559   
     31. A(C   2,C   3,C   4)          119.7046         0.433483   
     32. A(C   3,C   4,H  10)          119.8404         0.357251   
     33. A(C   3,C   4,C   5)          120.0982         0.436006   
     34. A(C   5,C   4,H  10)          120.0614         0.353749   
     35. A(C   0,C   5,C   4)          120.4776         0.432877   
     36. A(C   4,C   5,H   7)          119.6659         0.353676   
     37. A(C   0,C   5,H   7)          119.8557         0.354760   
     38. A(H  15,C  11,Cu 17)          100.3542         0.389291   
     39. A(N  12,C  11,Cu 17)           71.9350         0.476976   
     40. A(C   2,C  11,Cu 17)          111.4406         0.464400   
     41. A(N  12,C  11,H  15)          115.3913         0.352683   
     42. A(C   2,C  11,H  15)          118.2726         0.344136   
     43. A(C   2,C  11,N  12)          124.1352         0.418636   
     44. A(H  14,N  12,Cu 17)          109.3031         0.379041   
     45. A(H  13,N  12,Cu 17)          116.5284         0.379079   
     46. A(C  11,N  12,Cu 17)           69.5596         0.455987   
     47. A(H  13,N  12,H  14)          114.6287         0.301823   
     48. A(C  11,N  12,H  14)          118.2864         0.358248   
     49. A(C  11,N  12,H  13)          119.9316         0.358284   
     50. A(C  11,Cu 17,N  12)           38.5054         0.506937   
     51. A(N  12,Cu 17,H  16)          150.1804         0.497593   
     52. A(C  11,Cu 17,H  16)          111.7579         0.520961   
     53. D(H   8,C   1,C   0,C   5)    179.9111         0.028238   
     54. D(C   2,C   1,C   0,H   6)    178.2737         0.028238   
     55. D(C   2,C   1,C   0,C   5)     -1.3141         0.028238   
     56. D(H   8,C   1,C   0,H   6)     -0.5011         0.028238   
     57. D(C   3,C   2,C   1,H   8)   -177.9823         0.024434   
     58. D(C  11,C   2,C   1,C   0)   -174.5237         0.024434   
     59. D(C   3,C   2,C   1,C   0)      3.2288         0.024434   
     60. D(C  11,C   2,C   1,H   8)      4.2652         0.024434   
     61. D(H   9,C   3,C   2,C  11)     -6.5118         0.023991   
     62. D(C   4,C   3,C   2,C  11)    174.9795         0.023991   
     63. D(H   9,C   3,C   2,C   1)    175.8789         0.023991   
     64. D(C   4,C   3,C   2,C   1)     -2.6298         0.023991   
     65. D(H  10,C   4,C   3,C   2)   -179.8796         0.029052   
     66. D(C   5,C   4,C   3,H   9)   -178.3979         0.029052   
     67. D(C   5,C   4,C   3,C   2)      0.1327         0.029052   
     68. D(H  10,C   4,C   3,H   9)      1.5897         0.029052   
     69. D(H   7,C   5,C   4,H  10)      1.4846         0.025678   
     70. D(H   7,C   5,C   4,C   3)   -178.5277         0.025678   
     71. D(C   0,C   5,C   4,C   3)      1.7985         0.025678   
     72. D(H   7,C   5,C   0,H   6)     -0.4601         0.026679   
     73. D(H   7,C   5,C   0,C   1)    179.1261         0.026679   
     74. D(C   4,C   5,C   0,H   6)    179.2131         0.026679   
     75. D(C   4,C   5,C   0,C   1)     -1.2007         0.026679   
     76. D(C   0,C   5,C   4,H  10)   -178.1892         0.025678   
     77. D(Cu 17,C  11,C   2,C   1)   -116.6063         0.020081   
     78. D(H  15,C  11,C   2,C   3)   -178.7816         0.020081   
     79. D(H  15,C  11,C   2,C   1)     -1.1092         0.020081   
     80. D(N  12,C  11,C   2,C   3)    -16.4474         0.020081   
     81. D(N  12,C  11,C   2,C   1)    161.2250         0.020081   
     82. D(H  13,N  12,C  11,H  15)    157.2802         0.037063   
     83. D(H  13,N  12,C  11,C   2)     -5.5119         0.037063   
     84. D(H  14,N  12,C  11,Cu 17)    101.5400         0.037063   
     85. D(H  14,N  12,C  11,H  15)      8.4188         0.037063   
     86. D(H  14,N  12,C  11,C   2)   -154.3733         0.037063   
     87. D(H  13,N  12,C  11,Cu 17)   -109.5986         0.037063   
     88. D(H  16,Cu 17,N  12,H  14)   -108.5699         0.010000   
     89. D(H  16,Cu 17,N  12,H  13)    119.4889         0.010000   
     90. D(C  11,Cu 17,N  12,H  14)   -113.9102         0.010000   
     91. D(C  11,Cu 17,N  12,H  13)    114.1485         0.010000   
     92. D(H  16,Cu 17,C  11,H  15)    -63.6341         0.010000   
     93. D(H  16,Cu 17,C  11,N  12)   -177.1437         0.010000   
     94. D(H  16,Cu 17,N  12,C  11)      5.3403         0.010000   
     95. D(H  16,Cu 17,C  11,C   2)     62.4563         0.010000   
     96. D(N  12,Cu 17,C  11,H  15)    113.5096         0.010000   
     97. D(N  12,Cu 17,C  11,C   2)   -120.4000         0.010000   
    -----------------------------------------------------------------

Number of atoms                         .... 18
Number of degrees of freedom            .... 97


         *************************************************************
         *                GEOMETRY OPTIMIZATION CYCLE   1            *
         *************************************************************
---------------------------------
CARTESIAN COORDINATES (ANGSTROEM)
---------------------------------
  C     -2.989328    1.854150    1.636986
  C     -1.868991    2.644944    1.446771
  C     -0.675407    2.343661    2.119898
  C     -0.600782    1.199904    2.933174
  C     -1.719867    0.409976    3.107353
  C     -2.919295    0.745552    2.475424
  H     -3.916306    2.103837    1.139265
  H     -3.798131    0.135140    2.635797
  H     -1.909131    3.509316    0.796218
  H      0.330166    0.915053    3.407281
  H     -1.665424   -0.469713    3.734366
  C      0.412124    3.274772    1.970767
  N      1.478676    3.343375    2.811582
  H      1.500859    2.771187    3.648373
  H      1.973347    4.225239    2.889379
  H      0.262305    4.141810    1.338774
  H      1.672799    1.969487   -0.363987
  Cu     2.014242    2.410266    1.035508

----------------------------
CARTESIAN COORDINATES (A.U.)
----------------------------
  NO LB      ZA    FRAG     MASS         X           Y           Z
   0 C     6.0000    0    12.011   -5.649012    3.503835    3.093454
   1 C     6.0000    0    12.011   -3.531882    4.998220    2.734001
   2 C     6.0000    0    12.011   -1.276334    4.428877    4.006027
   3 C     6.0000    0    12.011   -1.135314    2.267490    5.542895
   4 C     6.0000    0    12.011   -3.250077    0.774742    5.872047
   5 C     6.0000    0    12.011   -5.516668    1.408890    4.677874
   6 H     1.0000    0     1.008   -7.400745    3.975676    2.152899
   7 H     1.0000    0     1.008   -7.177427    0.255378    4.980934
   8 H     1.0000    0     1.008   -3.607735    6.631647    1.504634
   9 H     1.0000    0     1.008    0.623924    1.729199    6.438827
  10 H     1.0000    0     1.008   -3.147195   -0.887629    7.056930
  11 C     6.0000    0    12.011    0.778802    6.188422    3.724210
  12 N     7.0000    0    14.007    2.794293    6.318064    5.313120
  13 H     1.0000    0     1.008    2.836213    5.236784    6.894426
  14 H     1.0000    0     1.008    3.729086    7.984544    5.460135
  15 H     1.0000    0     1.008    0.495685    7.826887    2.529916
  16 H     1.0000    0     1.008    3.161131    3.721792   -0.687836
  17 Cu   29.0000    0    63.550    3.806365    4.554743    1.956827

--------------------------------
INTERNAL COORDINATES (ANGSTROEM)
--------------------------------
 C      0   0   0     0.000000000000     0.00000000     0.00000000
 C      1   0   0     1.384446745897     0.00000000     0.00000000
 C      2   1   0     1.403038255317   119.99008893     0.00000000
 C      3   2   1     1.405405613032   119.83856039     3.22876275
 C      4   3   2     1.380824186858   119.70458880   357.37021015
 C      1   2   3     1.391715632985   119.80506193   358.68590401
 H      1   2   3     1.081367917338   119.90520659   178.27371241
 H      6   1   2     1.081977058833   119.85572893   179.12612302
 H      2   1   3     1.082575277062   120.57247773   181.22517014
 H      4   3   2     1.082858895100   120.86999264   175.87893165
 H      5   4   3     1.081647823323   119.84044858   180.12038655
 C      3   2   1     1.439420633691   117.00909101   185.47633679
 N     12   3   2     1.359856185696   124.13522308   161.22496550
 H     13  12   3     1.013958664040   119.93156340   354.48813061
 H     13  12   3     1.014118175445   118.28635847   205.62670479
 H     12   3   2     1.083335564811   118.27264830   358.89079474
 H     12   3   2     2.957049547324    96.79815540   268.38617941
 Cu    17  12   3     1.506471242333    40.00272801   236.21628110

---------------------------
INTERNAL COORDINATES (A.U.)
---------------------------
 C      0   0   0     0.000000000000     0.00000000     0.00000000
 C      1   0   0     2.616225196744     0.00000000     0.00000000
 C      2   1   0     2.651358057964   119.99008893     0.00000000
 C      3   2   1     2.655831715705   119.83856039     3.22876275
 C      4   3   2     2.609379552256   119.70458880   357.37021015
 C      1   2   3     2.629961402639   119.80506193   358.68590401
 H      1   2   3     2.043489213777   119.90520659   178.27371241
 H      6   1   2     2.044640324381   119.85572893   179.12612302
 H      2   1   3     2.045770793001   120.57247773   181.22517014
 H      4   3   2     2.046306753419   120.86999264   175.87893165
 H      5   4   3     2.044018159433   119.84044858   180.12038655
 C      3   2   1     2.720110789192   117.00909101   185.47633679
 N     12   3   2     2.569755772484   124.13522308   161.22496550
 H     13  12   3     1.916104186152   119.93156340   354.48813061
 H     13  12   3     1.916405619023   118.28635847   205.62670479
 H     12   3   2     2.047207528629   118.27264830   358.89079474
 H     12   3   2     5.588013808879    96.79815540   268.38617941
 Cu    17  12   3     2.846818076638    40.00272801   236.21628110

---------------------
BASIS SET INFORMATION
---------------------
There are 4 groups of distinct atoms

 Group   1 Type C   : 11s6p2d1f contracted to 5s3p2d1f pattern {62111/411/11/1}
 Group   2 Type H   : 5s1p contracted to 3s1p pattern {311/1}
 Group   3 Type N   : 11s6p2d1f contracted to 5s3p2d1f pattern {62111/411/11/1}
 Group   4 Type Cu  : 17s11p7d1f contracted to 6s4p4d1f pattern {842111/6311/4111/1}

Atom   0C    basis set group =>   1
Atom   1C    basis set group =>   1
Atom   2C    basis set group =>   1
Atom   3C    basis set group =>   1
Atom   4C    basis set group =>   1
Atom   5C    basis set group =>   1
Atom   6H    basis set group =>   2
Atom   7H    basis set group =>   2
Atom   8H    basis set group =>   2
Atom   9H    basis set group =>   2
Atom  10H    basis set group =>   2
Atom  11C    basis set group =>   1
Atom  12N    basis set group =>   3
Atom  13H    basis set group =>   2
Atom  14H    basis set group =>   2
Atom  15H    basis set group =>   2
Atom  16H    basis set group =>   2
Atom  17Cu   basis set group =>   4
---------------------------------
AUXILIARY/J BASIS SET INFORMATION
---------------------------------
There are 4 groups of distinct atoms

 Group   1 Type C   : 12s5p4d2f1g contracted to 6s4p3d1f1g pattern {711111/2111/211/2/1}
 Group   2 Type H   : 5s2p1d contracted to 3s1p1d pattern {311/2/1}
 Group   3 Type N   : 12s5p4d2f1g contracted to 6s4p3d1f1g pattern {711111/2111/211/2/1}
 Group   4 Type Cu  : 19s5p5d3f3g contracted to 8s5p4d3f3g pattern {121111111/11111/2111/111/111}

Atom   0C    basis set group =>   1
Atom   1C    basis set group =>   1
Atom   2C    basis set group =>   1
Atom   3C    basis set group =>   1
Atom   4C    basis set group =>   1
Atom   5C    basis set group =>   1
Atom   6H    basis set group =>   2
Atom   7H    basis set group =>   2
Atom   8H    basis set group =>   2
Atom   9H    basis set group =>   2
Atom  10H    basis set group =>   2
Atom  11C    basis set group =>   1
Atom  12N    basis set group =>   3
Atom  13H    basis set group =>   2
Atom  14H    basis set group =>   2
Atom  15H    basis set group =>   2
Atom  16H    basis set group =>   2
Atom  17Cu   basis set group =>   4


           ************************************************************
           *        Program running with 32 parallel MPI-processes    *
           *              working on a common directory               *
           ************************************************************
------------------------------------------------------------------------------
                             ORCA STARTUP CALCULATIONS
                           -- RI-GTO INTEGRALS CHOSEN --
------------------------------------------------------------------------------
------------------------------------------------------------------------------
                   ___                                                        
                  /   \      - P O W E R E D   B Y -                         
                 /     \                                                     
                 |  |  |   _    _      __       _____    __    __             
                 |  |  |  | |  | |    /  \     |  _  \  |  |  /  |          
                  \  \/   | |  | |   /    \    | | | |  |  | /  /          
                 / \  \   | |__| |  /  /\  \   | |_| |  |  |/  /          
                |  |  |   |  __  | /  /__\  \  |    /   |      \           
                |  |  |   | |  | | |   __   |  |    \   |  |\   \          
                \     /   | |  | | |  |  |  |  | |\  \  |  | \   \       
                 \___/    |_|  |_| |__|  |__|  |_| \__\ |__|  \__/        
                                                                              
                      - O R C A' S   B I G   F R I E N D -                    
                                      &                                       
                       - I N T E G R A L  F E E D E R -                       
                                                                              
 v1 FN, 2020, v2 2021, v3 2022-2024                                           
------------------------------------------------------------------------------


----------------------
SHARK INTEGRAL PACKAGE
----------------------

Number of atoms                             ...     18
Number of basis functions                   ...    347
Number of shells                            ...    139
Maximum angular momentum                    ...      3
Integral batch strategy                     ... SHARK/LIBINT Hybrid
RI-J (if used) integral strategy            ... SPLIT-RIJ (Revised 2003 algorithm where possible)
Printlevel                                  ...      1
Contraction scheme used                     ... SEGMENTED contraction
Prescreening option                         ... SCHWARTZ
   Thresh                                   ... 2.500e-11
   Tcut                                     ... 2.500e-12
   Tpresel                                  ... 2.500e-12 
Coulomb Range Separation                    ... NOT USED
Exchange Range Separation                   ... NOT USED
Multipole approximations                    ... NOT USED
Finite Nucleus Model                        ... NOT USED
CABS basis                                  ... NOT available
Auxiliary Coulomb fitting basis             ... AVAILABLE
   # of basis functions in Aux-J            ...    582
   # of shells in Aux-J                     ...    188
   Maximum angular momentum in Aux-J        ...      4
Auxiliary J/K fitting basis                 ... NOT available
Auxiliary Correlation fitting basis         ... NOT available
Auxiliary 'external' fitting basis          ... NOT available

Checking pre-screening integrals            ... done (  0.4 sec) Dimension = 139
   => SHARK Basis and OBASIS are compatible. Storing Pre-screening
Shell pair information
Shell pair cut-off parameter TPreSel        ...   2.5e-12
Total number of shell pairs                 ...      9730
Shell pairs after pre-screening             ...      8603
Total number of primitive shell pairs       ...     31637
Primitive shell pairs kept                  ...     20181
          la=0 lb=0:   2293 shell pairs
          la=1 lb=0:   2388 shell pairs
          la=1 lb=1:    645 shell pairs
          la=2 lb=0:   1314 shell pairs
          la=2 lb=1:    688 shell pairs
          la=2 lb=2:    198 shell pairs
          la=3 lb=0:    572 shell pairs
          la=3 lb=1:    300 shell pairs
          la=3 lb=2:    165 shell pairs
          la=3 lb=3:     40 shell pairs

Checking whether 4 symmetric matrices of dimension 347 fit in memory
:Max Core in MB      =   2000.00
 MB in use           =     14.34
 MB left             =   1985.66
 MB needed           =      1.84
 Data fit in memory  = YES
Calculating RI/J V-Matrix + Cholesky decomp.... done (  1.1 sec)
Calculating Nuclear repulsion               ... done (  0.0 sec) ENN=    617.094680827760 Eh

Diagonalization of the overlap matrix:
Smallest eigenvalue                        ... 8.867e-06
Time for diagonalization                   ...    0.042 sec
Threshold for overlap eigenvalues          ... 1.000e-07
Number of eigenvalues below threshold      ... 0
Time for construction of square roots      ...    1.368 sec
Total time needed                          ...    1.806 sec

-------------------
DFT GRID GENERATION
-------------------

General Integration Accuracy     IntAcc      ... 4.388
Radial Grid Type                 RadialGrid  ... OptM3 with GC (2021)
Angular Grid (max. ang.)         AngularGrid ... 4 (Lebedev-302)
Angular grid pruning method      GridPruning ... 4 (adaptive)
Weight generation scheme         WeightScheme... mBecke (2022)
Basis function cutoff            BFCut       ... 1.0000e-11
Integration weight cutoff        WCut        ... 1.0000e-14
Partially contracted basis set               ... off
Rotationally invariant grid construction     ... off
Angular grids for H and He will be reduced by one unit
Core-polarized basis detected: some atoms will have their core
                               angular grid increased.

Total number of grid points                  ...    88136
Total number of batches                      ...     1385
Average number of points per batch           ...       63
Average number of grid points per atom       ...     4896

--------------------
COSX GRID GENERATION
--------------------

GRIDX 1
-------
General Integration Accuracy     IntAcc      ... 3.816
Radial Grid Type                 RadialGrid  ... OptM3 with GC (2021)
Angular Grid (max. ang.)         AngularGrid ... 1 (Lebedev-50)
Angular grid pruning method      GridPruning ... 4 (adaptive)
Weight generation scheme         WeightScheme... mBecke (2022)
Basis function cutoff            BFCut       ... 1.0000e-11
Integration weight cutoff        WCut        ... 1.0000e-14
Partially contracted basis set               ... on
Rotationally invariant grid construction     ... off
Angular grids for H and He will be reduced by one unit
Core-polarized basis detected: some atoms will have their core
                               angular grid increased.

Total number of grid points                  ...    15748
Total number of batches                      ...      132
Average number of points per batch           ...      119
Average number of grid points per atom       ...      875
UseSFitting                                  ... on

GRIDX 2
-------
General Integration Accuracy     IntAcc      ... 4.020
Radial Grid Type                 RadialGrid  ... OptM3 with GC (2021)
Angular Grid (max. ang.)         AngularGrid ... 2 (Lebedev-110)
Angular grid pruning method      GridPruning ... 4 (adaptive)
Weight generation scheme         WeightScheme... mBecke (2022)
Basis function cutoff            BFCut       ... 1.0000e-11
Integration weight cutoff        WCut        ... 1.0000e-14
Partially contracted basis set               ... on
Rotationally invariant grid construction     ... off
Angular grids for H and He will be reduced by one unit
Core-polarized basis detected: some atoms will have their core
                               angular grid increased.

Total number of grid points                  ...    27045
Total number of batches                      ...      221
Average number of points per batch           ...      122
Average number of grid points per atom       ...     1502
UseSFitting                                  ... on

GRIDX 3
-------
General Integration Accuracy     IntAcc      ... 4.338
Radial Grid Type                 RadialGrid  ... OptM3 with GC (2021)
Angular Grid (max. ang.)         AngularGrid ... 3 (Lebedev-194)
Angular grid pruning method      GridPruning ... 4 (adaptive)
Weight generation scheme         WeightScheme... mBecke (2022)
Basis function cutoff            BFCut       ... 1.0000e-11
Integration weight cutoff        WCut        ... 1.0000e-14
Partially contracted basis set               ... on
Rotationally invariant grid construction     ... off
Angular grids for H and He will be reduced by one unit
Core-polarized basis detected: some atoms will have their core
                               angular grid increased.

Total number of grid points                  ...    52291
Total number of batches                      ...      416
Average number of points per batch           ...      125
Average number of grid points per atom       ...     2905
UseSFitting                                  ... on
Grids setup in  26.3 sec
Initializing property integral containers    ... done (  0.4 sec)

SHARK setup successfully completed in  32.1 seconds

Maximum memory used throughout the entire STARTUP-calculation: 33.0 MB


           ************************************************************
           *        Program running with 32 parallel MPI-processes    *
           *              working on a common directory               *
           ************************************************************
-------------------------------------------------------------------------------
                                 ORCA GUESS
                   Start orbitals & Density for SCF / CASSCF
-------------------------------------------------------------------------------

------------
SCF SETTINGS
------------
Hamiltonian:
 Density Functional     Method          .... DFT(GTOs)
 Exchange Functional    Exchange        .... B88
   X-Alpha parameter    XAlpha          ....  0.666667
   Becke's b parameter  XBeta           ....  0.004200
 Correlation Functional Correlation     .... LYP
 LDA part of GGA corr.  LDAOpt          .... VWN-5
 Gradients option       PostSCFGGA      .... off
 Hybrid DFT is turned on
   Fraction HF Exchange ScalHFX         ....  0.200000
   Scaling of DF-GGA-X  ScalDFX         ....  0.720000
   Scaling of DF-GGA-C  ScalDFC         ....  0.810000
   Scaling of DF-LDA-C  ScalLDAC        ....  1.000000
   Perturbative correction              ....  0.000000
   NL short-range parameter             ....  4.800000
 RI-approximation to the Coulomb term is turned on
   Number of AuxJ basis functions       .... 582
   RIJ-COSX (HFX calculated with COS-X)).... on


General Settings:
 Integral files         IntName         .... orca
 Hartree-Fock type      HFTyp           .... RHF
 Total Charge           Charge          ....    1
 Multiplicity           Mult            ....    1
 Number of Electrons    NEL             ....   86
 Basis Dimension        Dim             ....  347
 Nuclear Repulsion      ENuc            ....    617.0946808278 Eh

Convergence Acceleration:
 AO-DIIS                CNVDIIS         .... on
   Start iteration      DIISMaxIt       ....    12
   Startup error        DIISStart       ....  0.200000
   # of expansion vecs  DIISMaxEq       ....     5
   Bias factor          DIISBfac        ....   1.050
   Max. coefficient     DIISMaxC        ....  10.000
 MO-DIIS                CNVKDIIS        .... off
 Trust-Rad. Augm. Hess. CNVTRAH         .... auto
   Auto Start mean grad. ratio tolernc. ....  1.125000
   Auto Start start iteration           ....    50
   Auto Start num. interpolation iter.  ....    10
   Max. Number of Micro iterations      ....    24
   Max. Number of Macro iterations      .... Maxiter - #DIIS iter
   Number of Davidson start vectors     ....     2
   Converg. threshold    (grad. norm)   ....   1.000e-05
   Grad. Scal. Fac. for Micro threshold ....   0.100
   Minimum threshold for Micro iter.    ....   1.000e-02
   NR start threshold (gradient norm)   ....   1.000e-04
   Initial trust radius                 ....   0.400
   Minimum AH scaling param. (alpha)    ....   1.000
   Maximum AH scaling param. (alpha)    .... 1000.000
   Quad. conv. algorithm                .... NR
   White noise on init. David. guess    .... on
   Maximum white noise                  ....   0.010
   Pseudo random numbers                .... off
   Inactive MOs                         .... canonical
   Orbital update algorithm             .... Taylor
   Preconditioner                       .... Diag
   Full preconditioner red. dimension   ....   250
 SOSCF                 CNVSOSCF           .... on
   Start iteration     SOSCFMaxIt         ....   150
   Startup grad/error  SOSCFStart         ....  0.003300
   Hessian update      SOSCFHessUp        .... L-BFGS
   Autom. constraints  SOSCFAutoConstrain .... off
 Level Shifting         CNVShift        .... on
   Level shift para.    LevelShift      ....    0.2500
   Turn off err/grad.   ShiftErr        ....    0.0010
 Zerner damping         CNVZerner       .... off
 Static damping         CNVDamp         .... on
   Fraction old density DampFac         ....    0.7000
   Max. Damping (<1)    DampMax         ....    0.9800
   Min. Damping (>=0)   DampMin         ....    0.0000
   Turn off err/grad.   DampErr         ....    0.1000

SCF Procedure:
 Maximum # iterations   MaxIter         ....  2000
 SCF integral mode      SCFMode         .... Direct
   Integral package                     .... SHARK and LIBINT hybrid scheme
 Reset frequency        DirectResetFreq ....    15
 Integral Threshold     Thresh          ....  2.500e-11 Eh
 Primitive CutOff       TCut            ....  2.500e-12 Eh

Convergence Tolerance:
 Convergence Check Mode ConvCheckMode   .... Total+1el-Energy
 Convergence forced     ConvForced      .... 0
 Energy Change          TolE            ....  1.000e-08 Eh
 1-El. energy change                    ....  1.000e-05 Eh
 Orbital Gradient       TolG            ....  1.000e-05
 Orbital Rotation angle TolX            ....  1.000e-05
 DIIS Error             TolErr          ....  5.000e-07

------------------------------
INITIAL GUESS: MODEL POTENTIAL
------------------------------
Loading Hartree-Fock densities                     ... done
Calculating cut-offs                               ... done
Initializing the effective Hamiltonian             ... done
Setting up the integral package (SHARK)            ... done
Starting the Coulomb interaction                   ... done (   1.1 sec)
Making the grid                                    ... done (   6.0 sec)
Mapping shells                                     ... done
Starting the XC term evaluation                    ... done (   0.1 sec)
  promolecular density results
     # of electrons  =     86.991639232
     EX              =   -111.107701851
     EC              =     -3.307585841
     EX+EC           =   -114.415287692
Transforming the Hamiltonian                       ... done (   1.3 sec)
Diagonalizing the Hamiltonian                      ... done (   0.6 sec)
Back transforming the eigenvectors                 ... done (   0.4 sec)
Now organizing SCF variables                       ... done
                      ------------------
                      INITIAL GUESS DONE (  11.2 sec)
                      ------------------
             **** ENERGY FILE WAS UPDATED (orca.en.tmp) ****
Finished Guess after  16.4 sec
Maximum memory used throughout the entire GUESS-calculation: 19.7 MB


           ************************************************************
           *        Program running with 32 parallel MPI-processes    *
           *              working on a common directory               *
           ************************************************************

-------------------------------------------------------------------------------------------
                                      ORCA LEAN-SCF
                              memory conserving SCF solver
-------------------------------------------------------------------------------------------

--------------------
CPCM SOLVATION MODEL
--------------------
CPCM parameters:
  Epsilon                                         ...       6.0200
  Refrac                                          ...       1.3723
  Rsolv                                           ...       1.3000
  Surface type                                    ... GAUSSIAN VDW
  Discretization scheme                           ... Constant charge density
    Threshold for H atoms                         ...       5.0000 (charges/Ang^2)
    Threshold for non-H atoms                     ...       5.0000 (charges/Ang^2)
  Epsilon function type                           ...         CPCM
Solvent:                                          ... CUSTOM
Radii:
  Scheme                                          ... Element-dependent radii
  Radius for C  used is    3.8550 Bohr (=   2.0400 Ang.)
  Radius for H  used is    2.4944 Bohr (=   1.3200 Ang.)
  Radius for N  used is    3.5149 Bohr (=   1.8600 Ang.)
  Radius for Cu used is    3.1747 Bohr (=   1.6800 Ang.)
Calculating surface                               ...        done! (  0.0s)
Cavity surface points                             ...         1671
Cavity Volume                                     ...    1087.0602
Cavity Surface-area                               ...     627.8764
Calculating surface distance matrix               ...        done! (  0.3s)
Performing Cholesky decomposition & store         ...        done! (  1.6s)
Overall time for CPCM initialization              ...                 1.9s

----------------------------------------D-I-I-S--------------------------------------------
Iteration    Energy (Eh)           Delta-E    RMSDP     MaxDP     DIISErr   Damp  Time(sec)
-------------------------------------------------------------------------------------------
               ***  Starting incremental Fock matrix formation  ***
    1    -1966.9270517591389762     0.00e+00  6.37e-03  3.15e-02  1.78e-01  0.700  28.5
    2    -1967.0072844521837396    -8.02e-02  4.89e-03  2.25e-02  8.25e-02  0.700  33.7
                               ***Turning on AO-DIIS***
    3    -1967.0417251501221472    -3.44e-02  3.02e-03  2.56e-02  4.39e-02  0.700  28.2
    4    -1967.0621211165844215    -2.04e-02  5.99e-03  6.54e-02  2.81e-02  0.000  27.0
    5    -1967.1060486649125778    -4.39e-02  1.14e-03  1.33e-02  1.93e-02  0.000  30.3
    6    -1967.1063471908059910    -2.99e-04  4.95e-04  3.72e-03  1.76e-02  0.000  32.1
                              *** Initializing SOSCF ***
---------------------------------------S-O-S-C-F--------------------------------------
Iteration    Energy (Eh)           Delta-E    RMSDP     MaxDP     MaxGrad    Time(sec)
--------------------------------------------------------------------------------------
    7    -1967.1066338001728582    -2.87e-04  2.11e-04  1.78e-03  6.13e-04    32.6
               *** Restarting incremental Fock matrix formation ***
    8    -1967.1066377424258462    -3.94e-06  1.76e-04  3.10e-03  2.75e-04    26.9
    9    -1967.1066400961462932    -2.35e-06  9.76e-05  1.53e-03  1.24e-04    26.3
   10    -1967.1066400973845703    -1.24e-09  5.69e-05  8.93e-04  1.16e-04    34.4
                 **** Energy Check signals convergence ****

               *****************************************************
               *                     SUCCESS                       *
               *           SCF CONVERGED AFTER  10 CYCLES          *
               *****************************************************

Recomputing exchange energy using gridx3       ... done (    3.925 sec)
Old exchange energy                            :    -22.277633875 Eh
New exchange energy                            :    -22.277662989 Eh
Exchange energy change after final integration :     -0.000029114 Eh
Total energy after final integration           :  -1967.106669674 Eh
             **** ENERGY FILE WAS UPDATED (orca.en.tmp) ****

----------------
TOTAL SCF ENERGY
----------------

Total Energy       :      -1967.10666967430325 Eh          -53527.69378 eV

Components:
Nuclear Repulsion  :        617.09468082776027 Eh           16791.99995 eV
Electronic Energy  :      -2584.10269334384793 Eh          -70317.00913 eV
One Electron Energy:      -3936.88891482301506 Eh         -107128.19366 eV
Two Electron Energy:       1352.78622147916735 Eh           36811.18453 eV
CPCM Dielectric    :         -0.09862804393046 Eh              -2.68381 eV

Virial components:
Potential Energy   :      -3930.29631407105853 Eh         -106948.79988 eV
Kinetic Energy     :       1963.18964439675528 Eh           53421.10610 eV
Virial Ratio       :          2.00199523529921

DFT components:
N(Alpha)           :       43.000018812211 electrons
N(Beta)            :       43.000018812211 electrons
N(Total)           :       86.000037624423 electrons
E(X)               :      -88.821231161068 Eh       
E(C)               :       -3.854044330480 Eh       
E(XC)              :      -92.675275491548 Eh       

CPCM Solvation Model Properties:
Surface-charge          :         -1.03760945036445
Corrected charge        :         -1.00000000000000
Outlying charge corr.   :          0.00008619742268 Eh               0.00235 eV
Free-energy (cav+disp)  :  This term is not implemented in the current solvation scheme

---------------
SCF CONVERGENCE
---------------

  Last Energy change         ...    1.2383e-09  Tolerance :   1.0000e-08
  Last MAX-Density change    ...    8.9275e-04  Tolerance :   1.0000e-07
  Last RMS-Density change    ...    5.6899e-05  Tolerance :   5.0000e-09
  Last DIIS Error            ...    6.1322e-04  Tolerance :   5.0000e-07
  Last Orbital Gradient      ...    1.1571e-04  Tolerance :   1.0000e-05
  Last Orbital Rotation      ...    3.8769e-04  Tolerance :   1.0000e-05


----------------
ORBITAL ENERGIES
----------------

  NO   OCC          E(Eh)            E(eV) 
   0   2.0000    -323.082330     -8791.5171 
   1   2.0000     -38.883620     -1058.0771 
   2   2.0000     -34.088352      -927.5912 
   3   2.0000     -34.087901      -927.5789 
   4   2.0000     -34.086764      -927.5480 
   5   2.0000     -14.437272      -392.8582 
   6   2.0000     -10.317346      -280.7492 
   7   2.0000     -10.240158      -278.6489 
   8   2.0000     -10.224486      -278.2224 
   9   2.0000     -10.223846      -278.2050 
  10   2.0000     -10.218671      -278.0642 
  11   2.0000     -10.213812      -277.9320 
  12   2.0000     -10.211883      -277.8795 
  13   2.0000      -4.368847      -118.8824 
  14   2.0000      -2.867854       -78.0383 
  15   2.0000      -2.864394       -77.9441 
  16   2.0000      -2.851567       -77.5951 
  17   2.0000      -1.026501       -27.9325 
  18   2.0000      -0.907599       -24.6970 
  19   2.0000      -0.821541       -22.3553 
  20   2.0000      -0.793893       -21.6029 
  21   2.0000      -0.732673       -19.9371 
  22   2.0000      -0.660827       -17.9820 
  23   2.0000      -0.650070       -17.6893 
  24   2.0000      -0.612293       -16.6613 
  25   2.0000      -0.581620       -15.8267 
  26   2.0000      -0.535225       -14.5642 
  27   2.0000      -0.507293       -13.8042 
  28   2.0000      -0.490398       -13.3444 
  29   2.0000      -0.484995       -13.1974 
  30   2.0000      -0.465728       -12.6731 
  31   2.0000      -0.460668       -12.5354 
  32   2.0000      -0.416796       -11.3416 
  33   2.0000      -0.398053       -10.8316 
  34   2.0000      -0.387085       -10.5331 
  35   2.0000      -0.380007       -10.3405 
  36   2.0000      -0.353851        -9.6288 
  37   2.0000      -0.347710        -9.4617 
  38   2.0000      -0.344857        -9.3840 
  39   2.0000      -0.338813        -9.2196 
  40   2.0000      -0.315510        -8.5855 
  41   2.0000      -0.301426        -8.2022 
  42   2.0000      -0.274907        -7.4806 
  43   0.0000      -0.144787        -3.9398 
  44   0.0000      -0.054331        -1.4784 
  45   0.0000      -0.035485        -0.9656 
  46   0.0000      -0.032043        -0.8719 
  47   0.0000       0.017174         0.4673 
  48   0.0000       0.022374         0.6088 
  49   0.0000       0.035741         0.9726 
  50   0.0000       0.044439         1.2092 
  51   0.0000       0.065638         1.7861 
  52   0.0000       0.071595         1.9482 
  53   0.0000       0.076053         2.0695 
*Only the first 10 virtual orbitals were printed.

                    ********************************
                    * MULLIKEN POPULATION ANALYSIS *
                    ********************************

-----------------------
MULLIKEN ATOMIC CHARGES
-----------------------
   0 C :   -0.114281
   1 C :   -0.177781
   2 C :    0.201665
   3 C :   -0.195493
   4 C :   -0.129382
   5 C :   -0.094088
   6 H :    0.158082
   7 H :    0.161568
   8 H :    0.159940
   9 H :    0.158932
  10 H :    0.157624
  11 C :   -0.009028
  12 N :   -0.236127
  13 H :    0.315499
  14 H :    0.322736
  15 H :    0.199245
  16 H :   -0.152769
  17 Cu:    0.273658
Sum of atomic charges:    1.0000000

--------------------------------
MULLIKEN REDUCED ORBITAL CHARGES
--------------------------------
  0 C s       :     3.212497  s :     3.212497
      pz      :     0.939900  p :     2.815379
      px      :     0.960919
      py      :     0.914560
      dz2     :     0.011888  d :     0.079147
      dxz     :     0.016119
      dyz     :     0.011938
      dx2y2   :     0.021486
      dxy     :     0.017716
      f0      :     0.000787  f :     0.007258
      f+1     :     0.000334
      f-1     :     0.001361
      f+2     :     0.000873
      f-2     :     0.001530
      f+3     :     0.001567
      f-3     :     0.000806

  1 C s       :     3.268174  s :     3.268174
      pz      :     0.951784  p :     2.820016
      px      :     0.906347
      py      :     0.961886
      dz2     :     0.008921  d :     0.082180
      dxz     :     0.019773
      dyz     :     0.012289
      dx2y2   :     0.023410
      dxy     :     0.017787
      f0      :     0.000619  f :     0.007411
      f+1     :     0.001214
      f-1     :     0.000588
      f+2     :     0.001075
      f-2     :     0.001298
      f+3     :     0.001517
      f-3     :     0.001100

  2 C s       :     3.160137  s :     3.160137
      pz      :     0.955382  p :     2.515611
      px      :     0.710675
      py      :     0.849554
      dz2     :     0.023380  d :     0.112488
      dxz     :     0.018249
      dyz     :     0.015391
      dx2y2   :     0.027774
      dxy     :     0.027693
      f0      :     0.000750  f :     0.010100
      f+1     :     0.001275
      f-1     :     0.001508
      f+2     :     0.001054
      f-2     :     0.001964
      f+3     :     0.001934
      f-3     :     0.001615

  3 C s       :     3.284154  s :     3.284154
      pz      :     0.950534  p :     2.823526
      px      :     0.982437
      py      :     0.890555
      dz2     :     0.011647  d :     0.080495
      dxz     :     0.016108
      dyz     :     0.012313
      dx2y2   :     0.025860
      dxy     :     0.014567
      f0      :     0.000840  f :     0.007318
      f+1     :     0.000280
      f-1     :     0.001355
      f+2     :     0.000877
      f-2     :     0.001507
      f+3     :     0.001604
      f-3     :     0.000855

  4 C s       :     3.221896  s :     3.221896
      pz      :     0.940768  p :     2.820099
      px      :     0.902483
      py      :     0.976848
      dz2     :     0.008679  d :     0.080055
      dxz     :     0.018434
      dyz     :     0.011305
      dx2y2   :     0.024090
      dxy     :     0.017547
      f0      :     0.000679  f :     0.007332
      f+1     :     0.001095
      f-1     :     0.000605
      f+2     :     0.001044
      f-2     :     0.001325
      f+3     :     0.001581
      f-3     :     0.001004

  5 C s       :     3.222584  s :     3.222584
      pz      :     0.896550  p :     2.782458
      px      :     0.961888
      py      :     0.924021
      dz2     :     0.017636  d :     0.081859
      dxz     :     0.014735
      dyz     :     0.010715
      dx2y2   :     0.015047
      dxy     :     0.023726
      f0      :     0.000412  f :     0.007187
      f+1     :     0.001077
      f-1     :     0.001334
      f+2     :     0.000929
      f-2     :     0.001266
      f+3     :     0.000982
      f-3     :     0.001187

  6 H s       :     0.819528  s :     0.819528
      pz      :     0.006398  p :     0.022390
      px      :     0.011603
      py      :     0.004389

  7 H s       :     0.816218  s :     0.816218
      pz      :     0.004191  p :     0.022215
      px      :     0.010813
      py      :     0.007211

  8 H s       :     0.817637  s :     0.817637
      pz      :     0.008062  p :     0.022424
      px      :     0.003626
      py      :     0.010736

  9 H s       :     0.818593  s :     0.818593
      pz      :     0.006281  p :     0.022475
      px      :     0.011337
      py      :     0.004857

 10 H s       :     0.820011  s :     0.820011
      pz      :     0.007768  p :     0.022365
      px      :     0.003553
      py      :     0.011044

 11 C s       :     3.158499  s :     3.158499
      pz      :     0.782225  p :     2.697828
      px      :     0.879564
      py      :     1.036038
      dz2     :     0.016937  d :     0.141442
      dxz     :     0.028337
      dyz     :     0.023757
      dx2y2   :     0.043541
      dxy     :     0.028870
      f0      :     0.001447  f :     0.011259
      f+1     :     0.002080
      f-1     :     0.000494
      f+2     :     0.001918
      f-2     :     0.002212
      f+3     :     0.001632
      f-3     :     0.001476

 12 N s       :     3.414192  s :     3.414192
      pz      :     1.200158  p :     3.783029
      px      :     1.293769
      py      :     1.289102
      dz2     :     0.008368  d :     0.035849
      dxz     :     0.004067
      dyz     :     0.007858
      dx2y2   :     0.006440
      dxy     :     0.009118
      f0      :     0.000256  f :     0.003057
      f+1     :     0.000480
      f-1     :     0.000616
      f+2     :     0.000489
      f-2     :     0.000439
      f+3     :     0.000566
      f-3     :     0.000211

 13 H s       :     0.647397  s :     0.647397
      pz      :     0.018687  p :     0.037103
      px      :     0.007170
      py      :     0.011246

 14 H s       :     0.640817  s :     0.640817
      pz      :     0.006730  p :     0.036447
      px      :     0.011380
      py      :     0.018336

 15 H s       :     0.777029  s :     0.777029
      pz      :     0.007764  p :     0.023726
      px      :     0.004317
      py      :     0.011644

 16 H s       :     1.143618  s :     1.143618
      pz      :     0.005490  p :     0.009151
      px      :     0.001789
      py      :     0.001872

 17 Cus       :     6.785804  s :     6.785804
      pz      :     4.167145  p :    12.257282
      px      :     4.057877
      py      :     4.032260
      dz2     :     1.854508  d :     9.683085
      dxz     :     1.952520
      dyz     :     1.972399
      dx2y2   :     1.956284
      dxy     :     1.947373
      f0      :     0.000043  f :     0.000170
      f+1     :     0.000019
      f-1     :     0.000050
      f+2     :     0.000018
      f-2     :     0.000024
      f+3     :     0.000006
      f-3     :     0.000010



                     *******************************
                     * LOEWDIN POPULATION ANALYSIS *
                     *******************************

----------------------
LOEWDIN ATOMIC CHARGES
----------------------
   0 C :   -0.112009
   1 C :   -0.055486
   2 C :   -0.139808
   3 C :   -0.065745
   4 C :   -0.110317
   5 C :   -0.084975
   6 H :    0.158398
   7 H :    0.158641
   8 H :    0.164498
   9 H :    0.162364
  10 H :    0.158377
  11 C :   -0.136681
  12 N :    0.149454
  13 H :    0.218734
  14 H :    0.227080
  15 H :    0.189337
  16 H :   -0.175601
  17 Cu:    0.293736

-------------------------------
LOEWDIN REDUCED ORBITAL CHARGES
-------------------------------
  0 C s       :     2.764679  s :     2.764679
      pz      :     0.931683  p :     2.929196
      px      :     1.001188
      py      :     0.996325
      dz2     :     0.043277  d :     0.374854
      dxz     :     0.075695
      dyz     :     0.059620
      dx2y2   :     0.102787
      dxy     :     0.093476
      f0      :     0.005098  f :     0.043279
      f+1     :     0.002977
      f-1     :     0.005333
      f+2     :     0.004950
      f-2     :     0.008632
      f+3     :     0.010014
      f-3     :     0.006274

  1 C s       :     2.758068  s :     2.758068
      pz      :     0.898875  p :     2.874620
      px      :     1.025315
      py      :     0.950430
      dz2     :     0.035928  d :     0.379720
      dxz     :     0.081882
      dyz     :     0.057569
      dx2y2   :     0.115095
      dxy     :     0.089245
      f0      :     0.004164  f :     0.043078
      f+1     :     0.007449
      f-1     :     0.001721
      f+2     :     0.004660
      f-2     :     0.007932
      f+3     :     0.009626
      f-3     :     0.007526

  2 C s       :     2.693605  s :     2.693605
      pz      :     0.930363  p :     2.872261
      px      :     0.967234
      py      :     0.974664
      dz2     :     0.085150  d :     0.515652
      dxz     :     0.092344
      dyz     :     0.074457
      dx2y2   :     0.116638
      dxy     :     0.147063
      f0      :     0.005158  f :     0.058290
      f+1     :     0.006798
      f-1     :     0.005808
      f+2     :     0.006550
      f-2     :     0.011714
      f+3     :     0.012465
      f-3     :     0.009797

  3 C s       :     2.755693  s :     2.755693
      pz      :     0.906728  p :     2.890527
      px      :     1.004950
      py      :     0.978849
      dz2     :     0.044539  d :     0.376404
      dxz     :     0.071074
      dyz     :     0.060586
      dx2y2   :     0.111551
      dxy     :     0.088655
      f0      :     0.005240  f :     0.043120
      f+1     :     0.002758
      f-1     :     0.005516
      f+2     :     0.004759
      f-2     :     0.008088
      f+3     :     0.010341
      f-3     :     0.006419

  4 C s       :     2.765005  s :     2.765005
      pz      :     0.914873  p :     2.924660
      px      :     1.049494
      py      :     0.960293
      dz2     :     0.035235  d :     0.377291
      dxz     :     0.077040
      dyz     :     0.054162
      dx2y2   :     0.121037
      dxy     :     0.089818
      f0      :     0.004169  f :     0.043361
      f+1     :     0.006856
      f-1     :     0.001697
      f+2     :     0.004622
      f-2     :     0.008034
      f+3     :     0.010501
      f-3     :     0.007483

  5 C s       :     2.770320  s :     2.770320
      pz      :     0.917822  p :     2.891634
      px      :     1.006564
      py      :     0.967249
      dz2     :     0.068702  d :     0.380225
      dxz     :     0.066850
      dyz     :     0.054831
      dx2y2   :     0.073886
      dxy     :     0.115954
      f0      :     0.003670  f :     0.042796
      f+1     :     0.005605
      f-1     :     0.005069
      f+2     :     0.006334
      f-2     :     0.007885
      f+3     :     0.007471
      f-3     :     0.006762

  6 H s       :     0.781976  s :     0.781976
      pz      :     0.017330  p :     0.059626
      px      :     0.029703
      py      :     0.012594

  7 H s       :     0.781910  s :     0.781910
      pz      :     0.011945  p :     0.059449
      px      :     0.028100
      py      :     0.019404

  8 H s       :     0.775493  s :     0.775493
      pz      :     0.021282  p :     0.060008
      px      :     0.010650
      py      :     0.028077

  9 H s       :     0.777395  s :     0.777395
      pz      :     0.017200  p :     0.060242
      px      :     0.029350
      py      :     0.013691

 10 H s       :     0.782089  s :     0.782089
      pz      :     0.020567  p :     0.059533
      px      :     0.010680
      py      :     0.028286

 11 C s       :     2.771435  s :     2.771435
      pz      :     0.880257  p :     2.788917
      px      :     0.929991
      py      :     0.978669
      dz2     :     0.073658  d :     0.510936
      dxz     :     0.122507
      dyz     :     0.087307
      dx2y2   :     0.129630
      dxy     :     0.097835
      f0      :     0.008420  f :     0.065392
      f+1     :     0.014306
      f-1     :     0.002523
      f+2     :     0.009253
      f-2     :     0.012330
      f+3     :     0.008795
      f-3     :     0.009765

 12 N s       :     2.961974  s :     2.961974
      pz      :     1.219605  p :     3.718211
      px      :     1.283052
      py      :     1.215554
      dz2     :     0.039391  d :     0.158684
      dxz     :     0.028635
      dyz     :     0.033038
      dx2y2   :     0.023657
      dxy     :     0.033963
      f0      :     0.001038  f :     0.011677
      f+1     :     0.002453
      f-1     :     0.001581
      f+2     :     0.001835
      f-2     :     0.001915
      f+3     :     0.001666
      f-3     :     0.001189

 13 H s       :     0.674724  s :     0.674724
      pz      :     0.050349  p :     0.106542
      px      :     0.020786
      py      :     0.035407

 14 H s       :     0.666699  s :     0.666699
      pz      :     0.018838  p :     0.106220
      px      :     0.032077
      py      :     0.055306

 15 H s       :     0.747916  s :     0.747916
      pz      :     0.021771  p :     0.062747
      px      :     0.010002
      py      :     0.030975

 16 H s       :     1.152536  s :     1.152536
      pz      :     0.012356  p :     0.023065
      px      :     0.005329
      py      :     0.005381

 17 Cus       :     6.510625  s :     6.510625
      pz      :     4.263437  p :    12.355794
      px      :     4.042541
      py      :     4.049816
      dz2     :     1.897197  d :     9.839631
      dxz     :     1.983783
      dyz     :     2.002743
      dx2y2   :     1.974804
      dxy     :     1.981104
      f0      :     0.000056  f :     0.000213
      f+1     :     0.000021
      f-1     :     0.000069
      f+2     :     0.000020
      f-2     :     0.000026
      f+3     :     0.000008
      f-3     :     0.000014



                      *****************************
                      * MAYER POPULATION ANALYSIS *
                      *****************************

  NA   - Mulliken gross atomic population
  ZA   - Total nuclear charge
  QA   - Mulliken gross atomic charge
  VA   - Mayer's total valence
  BVA  - Mayer's bonded valence
  FA   - Mayer's free valence

  ATOM       NA         ZA         QA         VA         BVA        FA
  0 C      6.1143     6.0000    -0.1143     3.8815     3.8815    -0.0000
  1 C      6.1778     6.0000    -0.1778     3.9545     3.9545     0.0000
  2 C      5.7983     6.0000     0.2017     3.5796     3.5796     0.0000
  3 C      6.1955     6.0000    -0.1955     3.9389     3.9389     0.0000
  4 C      6.1294     6.0000    -0.1294     3.9237     3.9237     0.0000
  5 C      6.0941     6.0000    -0.0941     3.8830     3.8830    -0.0000
  6 H      0.8419     1.0000     0.1581     0.9630     0.9630    -0.0000
  7 H      0.8384     1.0000     0.1616     0.9602     0.9602    -0.0000
  8 H      0.8401     1.0000     0.1599     0.9668     0.9668     0.0000
  9 H      0.8411     1.0000     0.1589     0.9664     0.9664     0.0000
 10 H      0.8424     1.0000     0.1576     0.9642     0.9642     0.0000
 11 C      6.0090     6.0000    -0.0090     4.0085     4.0085     0.0000
 12 N      7.2361     7.0000    -0.2361     3.3473     3.3473     0.0000
 13 H      0.6845     1.0000     0.3155     0.9090     0.9090     0.0000
 14 H      0.6773     1.0000     0.3227     0.9018     0.9018     0.0000
 15 H      0.8008     1.0000     0.1992     0.9849     0.9849     0.0000
 16 H      1.1528     1.0000    -0.1528     0.9960     0.9960     0.0000
 17 Cu    28.7263    29.0000     0.2737     1.8989     1.8989    -0.0000

  Mayer bond orders larger than 0.100000
B(  0-C ,  1-C ) :   1.4328 B(  0-C ,  5-C ) :   1.3794 B(  0-C ,  6-H ) :   0.9681 
B(  1-C ,  2-C ) :   1.2966 B(  1-C ,  8-H ) :   0.9644 B(  2-C ,  3-C ) :   1.2455 
B(  2-C , 11-C ) :   1.1063 B(  3-C ,  4-C ) :   1.4807 B(  3-C ,  9-H ) :   0.9566 
B(  4-C ,  5-C ) :   1.3530 B(  4-C , 10-H ) :   0.9647 B(  5-C ,  7-H ) :   0.9610 
B( 11-C , 12-N ) :   1.1922 B( 11-C , 15-H ) :   0.9208 B( 11-C , 17-Cu) :   0.6017 
B( 12-N , 13-H ) :   0.8752 B( 12-N , 14-H ) :   0.8782 B( 12-N , 17-Cu) :   0.2924 
B( 16-H , 17-Cu) :   0.8863 

-------
TIMINGS
-------

Total SCF time: 0 days 0 hours 6 min 11 sec 

Total time                  ....     371.347 sec
Sum of individual times     ....     338.891 sec  ( 91.3%)

SCF preparation             ....      21.721 sec  (  5.8%)
Fock matrix formation       ....     203.096 sec  ( 54.7%)
  Startup                   ....       2.671 sec  (  1.3% of F)
  Split-RI-J                ....      13.322 sec  (  6.6% of F)
  Chain of spheres X        ....      91.582 sec  ( 45.1% of F)
  XC integration            ....      75.873 sec  ( 37.4% of F)
    XC Preparation          ....       0.000 sec  (  0.0% of XC)
    Basis function eval.    ....       0.221 sec  (  0.3% of XC)
    Density eval.           ....       0.230 sec  (  0.3% of XC)
    XC-Functional eval.     ....       0.018 sec  (  0.0% of XC)
    XC-Potential eval.      ....       0.253 sec  (  0.3% of XC)
  CPCM terms                ....       7.760 sec  (  3.8% of F)
Diagonalization             ....       0.000 sec  (  0.0%)
Density matrix formation    ....      14.402 sec  (  3.9%)
Total Energy calculation    ....      11.725 sec  (  3.2%)
Population analysis         ....       6.397 sec  (  1.7%)
Orbital Transformation      ....       8.200 sec  (  2.2%)
Orbital Orthonormalization  ....       0.000 sec  (  0.0%)
DIIS solution               ....      53.436 sec  ( 14.4%)
SOSCF solution              ....      19.914 sec  (  5.4%)
Finished LeanSCF after 372.7 sec

Maximum memory used throughout the entire LEANSCF-calculation: 32.5 MB


           ************************************************************
           *        Program running with 32 parallel MPI-processes    *
           *              working on a common directory               *
           ************************************************************

------------------------------------------------------------------------------
                         ORCA PROPERTY INTEGRAL CALCULATIONS
------------------------------------------------------------------------------

GBWName                                   ... orca.gbw
Number of atoms                           ...     18
Number of basis functions                 ...    347
Max core memory                           ...   2000 MB

Dipole integrals                          ... YES
Quadrupole integrals                      ...  NO
Linear momentum integrals                 ...  NO
Angular momentum integrals                ...  NO
Higher moments length integrals           ...  NO
Higher moments velocity integrals         ...  NO
Kinetic energy integrals                  ...  NO
GIAO right hand sides                     ...  NO
GIAO dipole derivative integrals          ...  NO
SOC integrals                             ...  NO
EPR diamagnetic integrals (GIAO)          ...  NO
EPR gauge integrals                       ...  NO
Field gradient integrals                  ...  NO (   0 nuclei)
Spin-dipole/Fermi contact integrals       ...  NO (   0 nuclei)
Contact density integrals                 ...  NO (   0 nuclei)
Nucleus-orbit integrals                   ...  NO (   0 nuclei)
Geometric perturbations                   ...  NO (  18 nuclei)

Choice of electric origin   ... Center of mass
Position of electric origin ... (  0.2067,  4.0879,  3.4652) 
Choice of magnetic origin   ... GIAO
Position of magnetic origin ... (  0.0000,  0.0000,  0.0000) 

Calculating integrals                     ... Electric Dipole (Length)     done (  1.1 sec)

Property integrals calculated in   1.2 sec

Maximum memory used throughout the entire PROPINT-calculation: 20.6 MB


-------------------------------------------------------------------------------
                          DFT DISPERSION CORRECTION                            
                                                                               
                              DFTD3 V3.1  Rev 1                                
                          USING Becke-Johnson damping                          
-------------------------------------------------------------------------------
The B3LYP functional is recognized
Active option DFTDOPT                   ...         4   

molecular C6(AA) [au] = 4477.307116 


            DFT-D V3
 parameters
 s6 scaling factor         :     1.0000 
 a1 scaling factor         :     0.3981 
 s8 scaling factor         :     1.9889 
 a2 scaling factor         :     4.4211 
 ad hoc parameters k1-k3   :    16.0000     1.3333    -4.0000 

 Edisp/kcal,au: -22.149719697538  -0.035297821388 
 E6   /kcal   :  -9.912028760 
 E8   /kcal   : -12.237690937 
 % E8         :  55.249868190 

-------------------------   ----------------
Dispersion correction           -0.035297821
-------------------------   ----------------


-------------------------   --------------------
FINAL SINGLE POINT ENERGY     -1967.141967495691
-------------------------   --------------------



           ************************************************************
           *        Program running with 32 parallel MPI-processes    *
           *              working on a common directory               *
           ************************************************************
------------------------------------------------------------------------------
                         ORCA SCF GRADIENT CALCULATION
------------------------------------------------------------------------------

Nuc. rep. gradient        (SHARK) ... done (  0.0 sec)
HCore & Overlap gradient  (SHARK) ... done (  0.9 sec)
Split-RIJ-J gradient      (SHARK) ... done (  1.6 sec)
done ( 16.3 sec)
XC gradient                       ... done (  7.1 sec)
CPCM gradient                     ... done (  1.5 sec)
Dispersion correction             ... done (  0.0 sec)

-------------------
DISPERSION GRADIENT
-------------------

   1   C   :   -0.000368680    0.000001379   -0.000099051
   2   C   :   -0.000524335    0.000093072   -0.000100030
   3   C   :   -0.000240499   -0.000048787    0.000034167
   4   C   :   -0.000327802   -0.000387201    0.000289362
   5   C   :   -0.000195448   -0.000324053    0.000203946
   6   C   :   -0.000244849   -0.000149259    0.000040350
   7   H   :   -0.000256086    0.000057598   -0.000128458
   8   H   :   -0.000233023   -0.000160738    0.000040783
   9   H   :   -0.000214838    0.000226300   -0.000194048
  10   H   :    0.000067774   -0.000282222    0.000286629
  11   H   :   -0.000009507   -0.000244219    0.000172251
  12   C   :    0.000272677    0.000302561   -0.000043184
  13   N   :    0.000409615    0.000303599    0.000162719
  14   H   :    0.000233547    0.000099622    0.000249668
  15   H   :    0.000178588    0.000197833    0.000118293
  16   H   :    0.000060195    0.000285792   -0.000089101
  17   H   :    0.000221756   -0.000091894   -0.000267919
  18   Cu  :    0.001170916    0.000120616   -0.000676377

Difference to translation invariance:
           :    0.0000000000   -0.0000000000    0.0000000000

Difference to rotation invariance:
           :    0.0000000000    0.0000000000   -0.0000000000

Norm of the Dispersion gradient    ...    0.0020976792
RMS gradient                       ...    0.0002854580
MAX gradient                       ...    0.0011709163

------------------
CARTESIAN GRADIENT
------------------

   1   C   :    0.000178018    0.000162861   -0.000016378
   2   C   :    0.000289068   -0.000244733   -0.000224142
   3   C   :    0.000283435   -0.000194916   -0.000472735
   4   C   :    0.000270413   -0.000339144   -0.000335511
   5   C   :    0.000164445    0.000048550   -0.000142705
   6   C   :    0.000093547    0.000093048    0.000234498
   7   H   :    0.000131627    0.000229911    0.000215948
   8   H   :   -0.000003391    0.000435044    0.000460330
   9   H   :    0.000362708   -0.000217989   -0.000406047
  10   H   :    0.000355968   -0.000402787   -0.000645841
  11   H   :    0.000134798   -0.000012959   -0.000017079
  12   C   :    0.000425801   -0.000341433   -0.000355146
  13   N   :   -0.000183950    0.000202783    0.000317144
  14   H   :   -0.000876788    0.000499819    0.000704838
[...]
     34      -0.056804   0.035715   0.003274  -0.001694   0.000390   0.000612
     35       0.035654  -0.022283  -0.002144   0.001044   0.000703  -0.000570
     36      -0.000932   0.000501   0.000051   0.000038   0.036176   0.018323
     37       0.001834  -0.001103  -0.000194   0.000006   0.012839   0.075645
     38      -0.002075   0.001361   0.000166  -0.000101   0.038652  -0.035965
     39      -0.003887   0.000572   0.000950   0.000297  -0.091286   0.101328
     40      -0.010316   0.006949   0.000844  -0.000934   0.446964  -0.482580
     41       0.008178  -0.007583  -0.000057   0.001395  -0.495216   0.548630
     42      -0.000025  -0.001030  -0.000164   0.000963  -0.388679  -0.353138
     43      -0.004977   0.002652  -0.000102   0.000942  -0.624851  -0.566497
     44       0.001162  -0.001578   0.000117   0.000407  -0.044843  -0.049776
     45      -0.127983   0.078895   0.007276  -0.002941  -0.004541   0.006913
     46       0.646053  -0.408085  -0.035792   0.019732   0.006195  -0.015622
     47      -0.402455   0.253744   0.022319  -0.012171  -0.006937   0.008706
     48      -0.001154   0.000395   0.000081   0.000277   0.002351   0.000102
     49       0.002442  -0.001379  -0.000143  -0.000090  -0.001461   0.000864
     50       0.001745  -0.000830  -0.000036  -0.000247  -0.002194   0.000176
     51       0.000026  -0.000023  -0.000001   0.000003   0.000000   0.000006
     52      -0.000042   0.000029   0.000003  -0.000004   0.000027   0.000031
     53       0.000039  -0.000015  -0.000005  -0.000003   0.000065  -0.000002


-----------
IR SPECTRUM
-----------

 Mode   freq       eps      Int      T**2         TX        TY        TZ
       cm**-1   L/(mol*cm) km/mol    a.u.
----------------------------------------------------------------------------
  6:     46.05   0.002523   12.75  0.017099  ( 0.101587 -0.079990  0.019518)
  7:     70.06   0.001342    6.78  0.005978  ( 0.056800  0.045439 -0.026211)
  8:    146.05   0.019621   99.16  0.041925  ( 0.185538 -0.022145 -0.083726)
  9:    225.14   0.005433   27.45  0.007530  ( 0.020197  0.080975 -0.023779)
 10:    281.70   0.068553  346.44  0.075942  (-0.234028  0.038686  0.140270)
 11:    305.43   0.024793  125.29  0.025331  ( 0.148429 -0.030587 -0.048626)
 12:    391.89   0.025015  126.42  0.019920  ( 0.132603  0.023866 -0.042031)
 13:    402.99   0.013530   68.38  0.010477  (-0.059208 -0.078496  0.028462)
 14:    415.38   0.015971   80.71  0.011998  (-0.034038  0.101706 -0.022262)
 15:    472.44   0.002874   14.53  0.001899  (-0.027249  0.014564  0.030726)
 16:    496.67   0.003629   18.34  0.002280  ( 0.007811 -0.006193  0.046697)
 17:    584.22   0.005740   29.01  0.003066  (-0.046283 -0.019409  0.023389)
 18:    628.51   0.000362    1.83  0.000180  ( 0.012552  0.000697  0.004675)
 19:    679.99   0.005706   28.83  0.002618  (-0.009182  0.027079  0.042436)
 20:    721.45   0.013004   65.71  0.005625  ( 0.016740 -0.057471 -0.045183)
 21:    784.71   0.057176  288.95  0.022738  (-0.134434  0.029934  0.061395)
 22:    794.19   0.014641   73.99  0.005753  ( 0.075300 -0.004369 -0.007989)
 23:    809.89   0.001823    9.21  0.000702  (-0.017551  0.006787  0.018664)
 24:    845.55   0.000186    0.94  0.000069  ( 0.008082 -0.000392  0.001774)
 25:    954.05   0.005165   26.10  0.001690  ( 0.035573  0.002618 -0.020426)
 26:    980.23   0.015101   76.31  0.004808  ( 0.062046  0.012876 -0.028143)
 27:    997.24   0.001191    6.02  0.000373  (-0.017151 -0.005425  0.007004)
 28:   1018.49   0.001323    6.69  0.000405  (-0.018915 -0.006794  0.001188)
 29:   1030.82   0.000143    0.72  0.000043  ( 0.005063 -0.000726 -0.004143)
 30:   1046.51   0.000311    1.57  0.000093  (-0.003702 -0.008453 -0.002743)
 31:   1103.69   0.002225   11.25  0.000629  ( 0.016026 -0.018466  0.005603)
 32:   1138.20   0.002984   15.08  0.000818  ( 0.000430  0.007069  0.027714)
 33:   1187.91   0.000374    1.89  0.000098  ( 0.005597 -0.007149  0.003982)
 34:   1210.53   0.018288   92.42  0.004715  ( 0.061395  0.025446 -0.017255)
 35:   1238.59   0.010058   50.83  0.002534  ( 0.042963  0.012590 -0.023020)
 36:   1312.08   0.036452  184.21  0.008670  ( 0.068705  0.053730  0.032594)
 37:   1358.82   0.014173   71.63  0.003255  ( 0.056040  0.008251  0.006817)
 38:   1377.79   0.004524   22.86  0.001025  ( 0.015168  0.025752 -0.011465)
 39:   1481.33   0.018243   92.19  0.003843  (-0.032263 -0.049163  0.019628)
 40:   1515.59   0.013959   70.54  0.002874  ( 0.047020  0.023009  0.011571)
 41:   1542.97   0.029409  148.62  0.005948  ( 0.069827  0.032034 -0.006776)
 42:   1608.75   0.002060   10.41  0.000400  (-0.018092 -0.008498  0.000338)
 43:   1632.94   0.039343  198.83  0.007519  ( 0.075437  0.038605 -0.018375)
 44:   1646.78   0.053639  271.07  0.010165  ( 0.080827  0.024679  0.054977)
 45:   1845.36   0.056721  286.64  0.009592  ( 0.025229 -0.024432 -0.091425)
 46:   3185.00   0.000334    1.69  0.000033  ( 0.001821 -0.005175 -0.001618)
 47:   3187.95   0.000753    3.81  0.000074  (-0.007206  0.004640  0.000544)
 48:   3191.67   0.002932   14.82  0.000287  (-0.009051  0.013454  0.004878)
 49:   3193.66   0.001006    5.09  0.000098  ( 0.009159 -0.003795 -0.000179)
 50:   3204.18   0.000833    4.21  0.000081  (-0.004927  0.004029 -0.006374)
 51:   3209.66   0.001167    5.90  0.000114  ( 0.009066  0.004727 -0.002996)
 52:   3488.03   0.054677  276.32  0.004892  (-0.043820 -0.031840 -0.044247)
 53:   3586.23   0.032189  162.67  0.002801  (-0.014434 -0.046691  0.020313)

* The epsilon (eps) is given for a Dirac delta lineshape.
** The dipole moment derivative (T) already includes vibrational overlap.

The first frequency considered to be a vibration is 6
The total number of vibrations considered is 48


--------------------------
THERMOCHEMISTRY AT 298.15K
--------------------------

Temperature         ...   298.15 K
Pressure            ...     1.00 atm
Total Mass          ...   170.71 AMU
Quasi RRHO          ...     True
Cut-Off Frequency   ...     1.00 cm^-1

Throughout the following assumptions are being made:
  (1) The electronic state is orbitally nondegenerate
  (2) There are no thermally accessible electronically excited states
  (3) Hindered rotations indicated by low frequency modes are not
      treated as such but are treated as vibrations and this may
      cause some error
  (4) All equations used are the standard statistical mechanics
      equations for an ideal gas
  (5) All vibrations are strictly harmonic

freq.      46.05  E(vib)   ...       0.53 
freq.      70.06  E(vib)   ...       0.50 
freq.     146.05  E(vib)   ...       0.41 
freq.     225.14  E(vib)   ...       0.33 
freq.     281.70  E(vib)   ...       0.28 
freq.     305.43  E(vib)   ...       0.26 
freq.     391.89  E(vib)   ...       0.20 
freq.     402.99  E(vib)   ...       0.19 
freq.     415.38  E(vib)   ...       0.18 
freq.     472.44  E(vib)   ...       0.15 
freq.     496.67  E(vib)   ...       0.14 
freq.     584.22  E(vib)   ...       0.11 
freq.     628.51  E(vib)   ...       0.09 
freq.     679.99  E(vib)   ...       0.08 
freq.     721.45  E(vib)   ...       0.07 
freq.     784.71  E(vib)   ...       0.05 
freq.     794.19  E(vib)   ...       0.05 
freq.     809.89  E(vib)   ...       0.05 
freq.     845.55  E(vib)   ...       0.04 
freq.     954.05  E(vib)   ...       0.03 
freq.     980.23  E(vib)   ...       0.02 
freq.     997.24  E(vib)   ...       0.02 
freq.    1018.49  E(vib)   ...       0.02 
freq.    1030.82  E(vib)   ...       0.02 
freq.    1046.51  E(vib)   ...       0.02 
freq.    1103.69  E(vib)   ...       0.02 
freq.    1138.20  E(vib)   ...       0.01 
freq.    1187.91  E(vib)   ...       0.01 
freq.    1210.53  E(vib)   ...       0.01 
freq.    1238.59  E(vib)   ...       0.01 
freq.    1312.08  E(vib)   ...       0.01 
freq.    1358.82  E(vib)   ...       0.01 
freq.    1377.79  E(vib)   ...       0.01 
freq.    1481.33  E(vib)   ...       0.00 
freq.    1515.59  E(vib)   ...       0.00 
freq.    1542.97  E(vib)   ...       0.00 
freq.    1608.75  E(vib)   ...       0.00 
freq.    1632.94  E(vib)   ...       0.00 
freq.    1646.78  E(vib)   ...       0.00 
freq.    1845.36  E(vib)   ...       0.00 
freq.    3185.00  E(vib)   ...       0.00 
freq.    3187.95  E(vib)   ...       0.00 
freq.    3191.67  E(vib)   ...       0.00 
freq.    3193.66  E(vib)   ...       0.00 
freq.    3204.18  E(vib)   ...       0.00 
freq.    3209.66  E(vib)   ...       0.00 
freq.    3488.03  E(vib)   ...       0.00 
freq.    3586.23  E(vib)   ...       0.00 

------------
INNER ENERGY
------------

The inner energy is: U= E(el) + E(ZPE) + E(vib) + E(rot) + E(trans)
    E(el)   - is the total energy from the electronic structure calculation
              = E(kin-el) + E(nuc-el) + E(el-el) + E(nuc-nuc)
    E(ZPE)  - the the zero temperature vibrational energy from the frequency calculation
    E(vib)  - the the finite temperature correction to E(ZPE) due to population
              of excited vibrational states
    E(rot)  - is the rotational thermal energy
    E(trans)- is the translational thermal energy

Summary of contributions to the inner energy U:
Electronic energy                ...  -1967.14357830 Eh
Zero point energy                ...      0.14256174 Eh      89.46 kcal/mol
Thermal vibrational correction   ...      0.00626499 Eh       3.93 kcal/mol
Thermal rotational correction    ...      0.00141627 Eh       0.89 kcal/mol
Thermal translational correction ...      0.00141627 Eh       0.89 kcal/mol
-----------------------------------------------------------------------
Total thermal energy                  -1966.99191903 Eh


Summary of corrections to the electronic energy:
(perhaps to be used in another calculation)
Total thermal correction                  0.00909753 Eh       5.71 kcal/mol
Non-thermal (ZPE) correction              0.14256174 Eh      89.46 kcal/mol
-----------------------------------------------------------------------
Total correction                          0.15165927 Eh      95.17 kcal/mol


--------
ENTHALPY
--------

The enthalpy is H = U + kB*T
                kB is Boltzmann's constant
Total thermal energy              ...  -1966.99191903 Eh 
Thermal Enthalpy correction       ...      0.00094421 Eh       0.59 kcal/mol
-----------------------------------------------------------------------
Total Enthalpy                    ...  -1966.99097482 Eh


Note: Only C1 symmetry has been detected, increase convergence thresholds 
      if your molecule has a higher symmetry. Symmetry factor of 1.0 is   
      used for the rotational entropy correction. 
 

Note: Rotational entropy computed according to Herzberg 
Infrared and Raman Spectra, Chapter V,1, Van Nostrand Reinhold, 1945 
Point Group:  C1, Symmetry Number:   1  
Rotational constants in cm-1:     0.095820     0.021408     0.020646 

Vibrational entropy computed according to the QRRHO of S. Grimme
Chem.Eur.J. 2012 18 9955 using a reference frequency of 100.0 cm-1


-------
ENTROPY
-------

The entropy contributions are T*S = T*(S(el)+S(vib)+S(rot)+S(trans))
     S(el)   - electronic entropy
     S(vib)  - vibrational entropy
     S(rot)  - rotational entropy
     S(trans)- translational entropy
The entropies will be listed as multiplied by the temperature to get
units of energy

Electronic entropy                ...      0.00000000 Eh      0.00 kcal/mol
Vibrational entropy               ...      0.01048427 Eh      6.58 kcal/mol
Rotational entropy                ...      0.01426453 Eh      8.95 kcal/mol
Translational entropy             ...      0.01962863 Eh     12.32 kcal/mol
-----------------------------------------------------------------------
Final entropy term                ...      0.04437742 Eh     27.85 kcal/mol

In case the symmetry of your molecule has not been determined correctly
or in case you have a reason to use a different symmetry number we print 
out the resulting rotational entropy values for sn=1,12:

 non-linear molecules -----------------------------------
|  sn= 1 | S(rot)=       0.01426453 Eh      8.95 kcal/mol|
|  sn= 2 | S(rot)=       0.01361008 Eh      8.54 kcal/mol|
|  sn= 3 | S(rot)=       0.01322724 Eh      8.30 kcal/mol|
|  sn= 4 | S(rot)=       0.01295562 Eh      8.13 kcal/mol|
|  sn= 5 | S(rot)=       0.01274493 Eh      8.00 kcal/mol|
|  sn= 6 | S(rot)=       0.01257279 Eh      7.89 kcal/mol|
|  sn= 7 | S(rot)=       0.01242724 Eh      7.80 kcal/mol|
|  sn= 8 | S(rot)=       0.01230116 Eh      7.72 kcal/mol|
|  sn= 9 | S(rot)=       0.01218995 Eh      7.65 kcal/mol|
|  sn=10 | S(rot)=       0.01209047 Eh      7.59 kcal/mol|
|  sn=11 | S(rot)=       0.01200048 Eh      7.53 kcal/mol|
|  sn=12 | S(rot)=       0.01191833 Eh      7.48 kcal/mol|
 linear molecules ---------------------------------------
|  Dinfh | S(rot)=       0.00898945 Eh      5.64 kcal/mol|
|  Cinfv | S(rot)=       0.00964391 Eh      6.05 kcal/mol|
 --------------------------------------------------------


-------------------
GIBBS FREE ENERGY
-------------------

The Gibbs free energy is G = H - T*S

Total enthalpy                    ...  -1966.99097482 Eh 
Total entropy correction          ...     -0.04437742 Eh    -27.85 kcal/mol
-----------------------------------------------------------------------
Final Gibbs free energy         ...  -1967.03535224 Eh

For completeness - the Gibbs free energy minus the electronic energy
G-E(el)                           ...      0.10822605 Eh     67.91 kcal/mol


Maximum memory used throughout the entire PROP-calculation: 110.2 MB

--------------------------------
SUGGESTED CITATIONS FOR THIS RUN
--------------------------------

Below you find a list of papers that are relevant to this ORCA run
We neither can nor want to force you to cite these papers, but we appreciate if you do
You receive ORCA, which is the product of decades of hard work by many enthusiastic individuals, for free
The only thing we kindly ask in return is that you cite our papers,
We deeply appreciate it, if you show your appreciation for ORCA by not just citing the generic ORCA reference.

Please note that relegating all ORCA citations to the supporting information does *not* help us.
SI sections are not indexed - citations you put there will not count into any citation statistics
But we need these citations in order to attract the funding resources that allow us to do what we are doing

Therefore, if you are a happy ORCA user, please consider citing a few of the papers listed below in the main body of your paper

In addition to the list printed below, the program has created the file orca.bibtex that contains the list in bibtex format
You can import this file easily into all common literature databanks and citation aid programs


List of essential papers. We consider these as the minimum necessary citations

  1. Neese, F.
     Software update: the ORCA program system, version 6.0
     WIRES Comput. Molec. Sci. 2025 15(1), e70019
     doi.org/10.1002/wcms.7019

List of papers to cite with high priority. The work reported in these papers was absolutely
necessary for this run to complete.
Our perspective: the developers of density functionals and basis sets usually get cited in chemistry papers
Good! But without the algorithms to do something with them, the functionals or basis sets would not do anything.
Hence, in our opinion, the algorithm design and method developments papers are equally worthy of getting cited

  1. Neese, F.
     An improvement of the resolution of the identity approximation for the formation of the Coulomb matrix
     J. Comp. Chem. 2003 24(14), 1740-1747
     doi.org/10.1002/jcc.10318
  2. Neese, F.; Wennmohs, F.; Hansen, A.; Becker, U.
     Efficient, approximate and parallel Hartree-Fock and hybrid DFT calculations. A 'chain-of-spheres' algorithm for the Hartree-Fock exchange
     Chem. Phys. 2009 356(1-3), 98-109
     doi.org/10.1016/j.chemphys.2008.10.036
  3. Grimme, S.; Antony, J.; Ehrlich, S.; Krieg, H.
     A consistent and accurate ab initio parametrization of density functional dispersion correction (DFT-D) for the 94 elements H-Pu
     J. Chem. Phys. 2010 132 , 154104
     doi.org/10.1063/1.3382344
  4. Grimme, S.; Ehrlich, S.; Goerigk, L.
     Effect of the damping function in dispersion corrected density functional theory
     J. Comput. Chem. 2011 32(7), 1456-1465
     doi.org/10.1002/jcc.21759
  5. Bykov, D.; Petrenko, T.; Izsak, R.; Kossmann, S.; Becker, U.; Valeev, E.; Neese, F.
     Efficient implementation of the analytic second derivatives of Hartree-Fock and hybrid DFT energies: a detailed analysis of different approximations
     Molec. Phys. 2015 113 , 1961-1977
     doi.org/10.1080/00268976.2015.1025114
  6. Garcia-Rates, M.; Neese, F.
     Efficient implementation of the analytical second derivatives of hartree-fock and hybrid DFT energies within the framework of the conductor-like polarizable continuum model
     J. Comput. Chem. 2019 40 , 1816-1828
     doi.org/10.1002/jcc.25833
  7. Garcia-Rates, M.; Neese, F.
     Effect of the Solute Cavity on the Solvation Energy and its Derivatives within the Framework of the Gaussian Charge Scheme
     J. Comput. Chem. 2020 41 , 922-939
     doi.org/10.1002/jcc.26139
  8. Helmich-Paris, B.; de Souza, B.; Neese, F.; Izsák, R.
     An improved chain of spheres for exchange algorithm
     J. Chem. Phys. 2021 155(10), 104109
     doi.org/10.1063/5.0058766
  9. Neese, F.
     The SHARK Integral Generation and Digestion System
     J. Comp. Chem. 2022 44(3), 381
     doi.org/10.1002/jcc.26942

List of suggested additional citations. These are papers that are important in the 'surrounding' of 
of this run, or papers that preceded the highly important papers. If you like your results we are grateful for a citation.

  1. Izsak, R.; Neese, F.
     An overlap fitted chain of spheres exchange method
     J. Chem. Phys. 2011 135 , 144105
     doi.org/10.1063/1.3646921
  2. Izsak, R.; Hansen, A.; Neese, F.
     The resolution of identity and chain of spheres approximations for the LPNO-CCSD singles Fock term
     Molec. Phys. 2012 110 , 2413-2417
     doi.org/10.1080/00268976.2012.687466
  3. Neese, F.
     The ORCA program system
     WIRES Comput. Molec. Sci. 2012 2(1), 73-78
     doi.org/10.1002/wcms.81
  4. Izsak, R.; Neese, F.; Klopper, W.
     Robust fitting techniques in the chain of spheres approximation to the Fock exchange: The role of the complementary space
     J. Chem. Phys. 2013 139 , 
     doi.org/10.1063/1.4819264
  5. Neese, F.
     Software update: the ORCA program system, version 4.0
     WIRES Comput. Molec. Sci. 2018 8(1), 1-6
     doi.org/10.1002/wcms.1327
  6. Neese, F.; Wennmohs, F.; Becker, U.; Riplinger, C.
     The ORCA quantum chemistry program package
     J. Chem. Phys. 2020 152(22), 224108
     doi.org/10.1063/5.0004608
  7. Neese, F.
     Software update: The ORCA program system—Version 5.0
     WIRES Comput. Molec. Sci. 2022 12(1), e1606
     doi.org/10.1002/wcms.1606

List of optional additional citations

  1. Neese, F.
     Approximate second-order SCF convergence for spin unrestricted wavefunctions
     Chem. Phys. Lett. 2000 325(1-3), 93-98
     doi.org/10.1016/s0009-2614(00)00662-x

Timings for individual modules:

Sum of individual times          ...     9753.000 sec (= 162.550 min)
Startup calculation              ...      723.675 sec (=  12.061 min)   7.4 %
SCF iterations                   ...     7127.315 sec (= 118.789 min)  73.1 %
Property integrals               ...      341.594 sec (=   5.693 min)   3.5 %
SCF Response                     ...      585.099 sec (=   9.752 min)   6.0 %
Property calculations            ...      319.727 sec (=   5.329 min)   3.3 %
SCF Gradient evaluation          ...      655.353 sec (=  10.923 min)   6.7 %
Geometry relaxation              ...        0.236 sec (=   0.004 min)   0.0 %
                             ****ORCA TERMINATED NORMALLY****
TOTAL RUN TIME: 0 days 2 hours 44 minutes 11 seconds 495 msec
