
                                 *****************
                                 * O   R   C   A *
                                 *****************

                                            #,                                       
                                            ###                                      
                                            ####                                     
                                            #####                                    
                                            ######                                   
                                           ########,                                 
                                     ,,################,,,,,                         
                               ,,#################################,,                 
                          ,,##########################################,,             
                       ,#########################################, ''#####,          
                    ,#############################################,,   '####,        
                  ,##################################################,,,,####,       
                ,###########''''           ''''###############################       
              ,#####''   ,,,,##########,,,,          '''####'''          '####       
            ,##' ,,,,###########################,,,                        '##       
           ' ,,###''''                  '''############,,,                           
         ,,##''                                '''############,,,,        ,,,,,,###''
      ,#''                                            '''#######################'''  
     '                                                          ''''####''''         
             ,#######,   #######,   ,#######,      ##                                
            ,#'     '#,  ##    ##  ,#'     '#,    #''#        ,####,    ,#,          
            ##       ##  ##   ,#'  ##            #'  '#       #'       ,# #          
            ##       ##  #######   ##           ,######,      #####,      #          
            '#,     ,#'  ##    ##  '#,     ,#' ,#      #,     #,   #      #          
             '#######'   ##     ##  '#######'  #'      '#     '####' #    #          



                #########################################################
                #                        -***-                          #
                #          Department of theory and spectroscopy        #
                #                                                       #
                #                      Frank Neese                      #
                #                                                       #
                #     Directorship, Architecture, Infrastructure        #
                #                    SHARK, DRIVERS                     #
                #        Core code/Algorithms in most modules           #
                #                                                       #
                #        Max Planck Institute fuer Kohlenforschung      #
                #                Kaiser Wilhelm Platz 1                 #
                #                 D-45470 Muelheim/Ruhr                 #
                #                      Germany                          #
                #                                                       #
                #                  All rights reserved                  #
                #                        -***-                          #
                #########################################################


                         Program Version 6.1.0-f.0  -   RELEASE   -


 With contributions from (in alphabetic order):
[Max-Planck-Institut fuer Kohlenforschung]                               
  Daniel Aravena         : Magnetic Suceptibility                        
  Michael Atanasov       : Ab Initio Ligand Field Theory (pilot matlab implementation)
  Alexander A. Auer      : GIAO ZORA, VPT2 properties, NMR spectrum      
  Ute Becker             : All parallelization in ORCA, NUMFREQ, NUMCALC 
  Giovanni Bistoni       : ED, misc. LED, open-shell LED, HFLD           
  Dmytro Bykov           : pre 5.0 version of the SCF Hessian            
  Marcos Casanova-Páez   : Triplet and SCS-CIS(D). UHF-(DLPNO)-IP/EA/STEOM-CCSD. UHF-CVS-IP/STEOM-CCSD   
  Vijay G. Chilkuri      : MRCI spin determinant printing, contributions to CSF-ICE 
  Pauline Colinet        : FMM embedding                                 
  Dipayan Datta          : RHF DLPNO-CCSD density                        
  Achintya Kumar Dutta   : EOM-CC, STEOM-CC                              
  Nicolas Foglia         : Exact transition moments, OPA infrastructure, MCD improvements    
  Dmitry Ganyushin       : Spin-Orbit,Spin-Spin,Magnetic field MRCI      
  Miquel Garcia-Rates    : C-PCM and meta-GGA Hessian, CCSD/C-PCM, Gaussian charge scheme 
  Tiago L. C. Gouveia    : GS-ROHF, GS-ROCIS                             
  Yang Guo               : DLPNO-NEVPT2, F12-NEVPT2, CIM, IAO-localization        
  Andreas Hansen         : Spin unrestricted coupled pair/coupled cluster methods 
  Ingolf Harden          : AUTO-CI MPn and infrastructure                
  Benjamin Helmich-Paris : MC-RPA, TRAH-(SCF,CASSCF), AVAS, COSX integrals, SCF dyn. polar., MC-PDFT, srDFT 
  Lee Huntington         : MR-EOM, pCC                                   
  Robert Izsak           : Overlap fitted RIJCOSX, COSX-SCS-MP3, EOM     
  Riya Kayal             : Wick's Theorem for AUTO-CI, AUTO-CI UHF-CCSDT 
  Emily Kempfer          : AUTO-CI RHF CISDT and CCSDT, approximate NEVPT4
  Christian Kollmar      : KDIIS, OOCD, Brueckner-CCSD(T), CCSD density, CASPT2, CASPT2-K, improved NEVPT2 
  Axel Koslowski         : Symmetry handling                             
  Simone Kossmann        : meta-GGA functionals, TD-DFT gradient, OOMP2, (MP2 Hessian; deprecated post 5.0) 
  Lucas Lang             : DCDCAS, Hyperfine gauge corrections, ICE-SOC+SSC
  Marvin Lechner         : AUTO-CI (C++ implementation), FIC-MRCC        
  Spencer Leger          : CASSCF response                               
  Dagmar Lenk            : GEPOL surface, SMD, ORCA-2-JSON               
  Dimitrios Liakos       : Extrapolation schemes; Compound Job, Property file
  Dimitrios Manganas     : Further ROCIS development; embedding schemes. LFT, Crystal Embedding 
  Dimitrios Pantazis     : SARC Basis sets                               
  Anastasios Papadopoulos: AUTO-CI, single reference methods and gradients 
  Taras Petrenko         : pre 6.0 DFT Hessian and TD-DFT gradient,  ECA, NRVS 
  Petra Pikulova         : Analytic Raman intensities                    
  Peter Pinski           : DLPNO-MP2, DLPNO-MP2 Gradient                 
  Shashank Vittal Rao    : ES-AILFT, MagRelax                            
  Christoph Reimann      : Effective Core Potentials                     
  Marius Retegan         : Local ZFS, SOC                                
  Christoph Riplinger    : Optimizer, TS searches, QM/MM, DLPNO-CCSD(T), (RO)-DLPNO pert. Triples 
  Michael Roemelt        : Original ROCIS implementation, recursive CI coupling coefficients
  Masaaki Saitow         : Open-shell DLPNO-CCSD energy and density      
  Barbara Sandhoefer     : DKH picture change effects                    
  Yorick L. A. Schmerwitz: GMF and freeze-and-release deltaSCF, NEB S-IDPP initial path                    
  Kantharuban Sivalingam : CASSCF convergence/infrastructure, NEVPT2, NEVPT3, NEVPT4(SD), FIC-MRCI and CEPA variants
  Bernardo de Souza      : ESD, SOC TD-DFT                               
  Georgi L. Stoychev     : AutoAux, RI-MP2 NMR, DLPNO-MP2 response, X2C  
  Van Anh Tran           : RI-MP2 g-tensors                              
  Willem Van den Heuvel  : Paramagnetic NMR                              
  Zikuan Wang            : NOTCH, Electric field optimization            
  Frank Wennmohs         : Technical directorship and infrastructure     
  Hang Xu                : AUTO-CI-Response properties                   
                                                                         
[FACCTs GmbH]                                                            
  Markus Bursch, Nicolas Foglia, Miquel Garcia-Rates, Ingolf Harden, Hagen Neugebauer, Anastasios Papadopoulos, 
  Christoph Riplinger, Bernardo de Souza, Georgi L. Stoychev                                                    
                                                                 
  APM, various basis sets, CI-OPT, improved COSX, DLPNO-Multilevel,           
  DOCKER, DRACO, updates on ESD, Fragmentator, GOAT, IRC, LR-CPCM, L-BFGS, MBIS, meta-GGA TD-DFT gradient, ML-optimized integration grids, 
  MM, NACMEs, nearIR, NEB, NEB-TS, NL-DFT gradient (VV10), 2- and 3-layer-ONIOM, interface openCOSMO-RS, QMMM,   
  Crystal-QMMM, RESP, rigid body optimization, SF, symmetry and pop. for TD-DFT, various functionals, SOLVATOR                                   
                                                                         
[Other institutions]                                                     
  V. Asgeirsson          : NEB                                           
  Christoph Bannwarth    : sTDA-DFT, sTD-DFT, PBEh-3c, B97-3c, D3        
  Giovanni Bistoni       : ETS/NOCV, ADLD/ADEX, COVALED                  
  Martin Brehm           : Molecular dynamics                            
  Ronald Cardenas        : ETS/NOCV                                      
  Martina Colucci        : COVALED                                       
  Sebastian Ehlert       : rSCAN, r2SCAN, r2SCAN-3c, D4, dhf basis sets  
  Marvin Friede          : D4 for Fr, Ra, Ac-Lr                          
  Lars Goerigk           : TD-DFT with DH, B97 family of functionals     
  Stefan Grimme          : VdW corrections, initial TS optimization, DFT functionals, gCP, sTDA/sTD-DF 
  Waldemar Hujo          : DFT-NL                                        
  H. Jonsson             : NEB                                           
  Holger Kruse           : gCP                                           
  Marcel Mueller         : wB97X-3c, vDZP basis set                      
  Hagen Neugebauer       : wr2SCAN, Native XTB                           
  Gianluca Regni         : ADLD/ADEX                                     
  Tobias Risthaus        : pre 6.0 range-separated hybrid DFT and stability analysis
  Lukas Wittmann         : regularized MP2, r2SCAN double-hybrids, wr2SCAN        
                                                                         
We gratefully acknowledge several colleagues who have allowed us to      
interface, adapt or use parts of their codes:                            
  Ed Valeev, F. Pavosevic, A. Kumar             : LibInt (2-el integral package), F12 methods 
  Garnet Chan, S. Sharma, J. Yang, R. Olivares  : DMRG                   
  Ulf Ekstrom                                   : XCFun DFT Library      
  Mihaly Kallay                                 : mrcc  (arbitrary order and MRCC methods)
  Frank Weinhold                                : gennbo (NPA and NBO analysis)           
  Simon Mueller                                 : openCOSMO-RS                            
  Christopher J. Cramer and Donald G. Truhlar   : smd solvation model                     
  S Lehtola, MJT Oliveira, MAL Marques          : LibXC Library                           
  Liviu Ungur et al                             : ANISO software                          


 Your calculation uses the libint2 library for the computation of 2-el integrals
 For citations please refer to: http://libint.valeyev.net

 Your ORCA version has been built with support for libXC version: 7.0.0
 For citations please refer to: https://libxc.gitlab.io

 This ORCA versions uses:
   CBLAS   interface :  Fast vector & matrix operations
   LAPACKE interface :  Fast linear algebra routines
   SCALAPACK package :  Parallel linear algebra routines
   Shared memory     :  Shared parallel matrices
   BLAS/LAPACK       :  OpenBLAS 0.3.29  USE64BITINT DYNAMIC_ARCH NO_AFFINITY Zen SINGLE_THREADED
        Core in use  :  Zen
   Copyright (c) 2011-2014, The OpenBLAS Project


  ***********************************
  * Starting time: Tue Oct 14 08:11:19 2025
  * Host name:     mc074.hpc.nesi.org.nz
  * Process ID:    4016094
  * Working dir.:  /nesi/nobackup/nesi99999/geoffreyweal/ORCA_tutorial/Step4B_Validate_Forwards_and_Backwards/Backwards
  ***********************************

NOTE: MaxCore=2000 MB was set to SCF,MP2,MDCI,CIPSI,MRCI,RASCI and CIS
      => If you want to overwrite this, your respective input block should be placed after the MaxCore statement


***************************************
The coordinates will be read from file: orca_IRC_B.xyz
***************************************


Your calculation utilizes the atom-pairwise dispersion correction
with the Becke-Johnson damping scheme (D3BJ)


Warning: RI is on but no J-basis has been assigned. Assigning Def2/J (nothing to worry about!)
================================================================================

----- Orbital basis set information -----
Your calculation utilizes the basis: def2-TZVP
   F. Weigend and R. Ahlrichs, Phys. Chem. Chem. Phys. 7, 3297 (2005).

----- AuxJ basis set information -----
Your calculation utilizes the auxiliary basis: def2/J
   H-Rn: F. Weigend, Phys. Chem. Chem. Phys. 8, 1057 (2006).
   Fr-Lr: K. Eichkorn, F. Weigend, O. Treutler, R. Ahlrichs; Theor. Chem. Acc. 97, 119 (1997).

================================================================================
                                        WARNINGS
                       Please study these warnings very carefully!
================================================================================


WARNING: Geometry Optimization
  ===> : Switching off AutoStart
         For restart on a previous wavefunction, please use MOREAD

================================================================================
                                       INPUT FILE
================================================================================
NAME = orca.inp
|  1> !B3LYP DEF2-TZVP D3BJ 
|  2> !OPT FREQ TightOPT TightSCF defgrid2
|  3> %SCF
|  4>     MaxIter 2000       # Here setting MaxIter to a very high number. Intended for systems that require sometimes 1000 iterations before converging (very rare).
|  5>     DIISMaxEq 5        # Default value is 5. A value of 15-40 necessary for difficult systems.
|  6>     directresetfreq 15 # Default value is 15. A value of 1 (very expensive) is sometimes required. A value between 1 and 15 may be more cost-effective.
|  7> END
|  8> %CPCM EPSILON 6.02 REFRAC 1.3723 END
|  9> %PAL NPROCS 32 END
| 10> %maxcore 2000 # This indicates you want ORCA to use only 2GB per core maximum, so ORCA will use only 2GB*32=64GB of memory in total.
| 11> * xyzfile 1 1 orca_IRC_B.xyz
| 12> 
| 13> 
| 14>                          ****END OF INPUT****
================================================================================

                       *****************************
                       * Geometry Optimization Run *
                       *****************************

Geometry optimization settings:
Update method            Update   .... BFGS
Choice of coordinates    CoordSys .... (2022) Redundant Internals
Initial Hessian          InHess   .... Almloef's Model
Max. no of cycles        MaxIter  .... 54

Convergence Tolerances:
Energy Change            TolE     ....  1.0000e-06 Eh
Max. Gradient            TolMAXG  ....  1.0000e-04 Eh/bohr
RMS Gradient             TolRMSG  ....  3.0000e-05 Eh/bohr
Max. Displacement        TolMAXD  ....  1.0000e-03 bohr
RMS Displacement         TolRMSD  ....  6.0000e-04 bohr
Strict Convergence                .... False

------------------------------------------------------------------------------
                        ORCA OPTIMIZATION COORDINATE SETUP
------------------------------------------------------------------------------

The optimization will be done in redundant internal coordinates (2022)
Making redundant internal coordinates   ...  (2022 redundants) done
Evaluating the initial hessian          ...  (Almloef) done
Evaluating the coordinates              ...  done
Calculating the B-matrix                .... done
Calculating the G-matrix                .... done
The number of degrees of freedom        ....   83

    -----------------------------------------------------------------
                    Redundant Internal Coordinates


    -----------------------------------------------------------------
         Definition                    Initial Value    Approx d2E/dq
    -----------------------------------------------------------------
      1. B(C   1,C   0)                  1.3871         0.631557   
      2. B(C   2,C   1)                  1.3963         0.610402   
      3. B(C   3,C   2)                  1.3940         0.615788   
      4. B(C   4,C   3)                  1.3937         0.616325   
      5. B(C   5,C   4)                  1.3894         0.626191   
      6. B(C   5,C   0)                  1.3924         0.619321   
      7. B(H   6,C   0)                  1.0826         0.370059   
      8. B(H   7,C   5)                  1.0822         0.370545   
      9. B(H   8,C   1)                  1.0838         0.368332   
     10. B(H   9,C   3)                  1.0835         0.368745   
     11. B(H  10,C   4)                  1.0828         0.369793   
     12. B(C  11,C   2)                  1.5069         0.406694   
     13. B(N  12,C  11)                  1.4974         0.377199   
     14. B(H  13,N  12)                  1.0168         0.421976   
     15. B(H  14,N  12)                  1.0164         0.422578   
     16. B(H  15,C  11)                  1.0893         0.360966   
     17. B(H  16,C  11)                  1.0906         0.359267   
     18. B(Cu 17,N  12)                  1.9490         0.726414   
     19. A(C   5,C   0,H   6)          120.2991         0.354478   
     20. A(C   1,C   0,H   6)          119.6928         0.355656   
     21. A(C   1,C   0,C   5)          120.0080         0.435425   
     22. A(C   0,C   1,H   8)          119.8954         0.355374   
     23. A(C   2,C   1,H   8)          119.1936         0.353327   
     24. A(C   0,C   1,C   2)          120.9098         0.434290   
     25. A(C   1,C   2,C   3)          118.8087         0.432320   
     26. A(C   3,C   2,C  11)          123.8322         0.402173   
     27. A(C   1,C   2,C  11)          117.2727         0.401551   
     28. A(C   2,C   3,C   4)          120.3409         0.433071   
     29. A(C   2,C   3,H   9)          121.1091         0.353921   
     30. A(C   4,C   3,H   9)          118.5463         0.353973   
     31. A(C   3,C   4,H  10)          119.6446         0.354143   
     32. A(C   3,C   4,C   5)          120.3909         0.434378   
     33. A(C   5,C   4,H  10)          119.9620         0.355098   
     34. A(C   0,C   5,C   4)          119.5314         0.434757   
     35. A(C   4,C   5,H   7)          120.3090         0.355220   
     36. A(C   0,C   5,H   7)          120.1596         0.354556   
     37. A(H  15,C  11,H  16)          106.8581         0.290843   
     38. A(N  12,C  11,H  16)          108.0992         0.322771   
     39. A(C   2,C  11,H  16)          108.5304         0.328761   
     40. A(N  12,C  11,H  15)          108.6606         0.323020   
     41. A(C   2,C  11,H  15)          109.4332         0.329017   
     42. A(C   2,C  11,N  12)          114.9545         0.366983   
     43. A(H  14,N  12,Cu 17)          108.0313         0.410866   
     44. A(H  13,N  12,Cu 17)          110.1904         0.410763   
     45. A(C  11,N  12,Cu 17)          113.4753         0.452958   
     46. A(H  13,N  12,H  14)          105.1984         0.300903   
     47. A(C  11,N  12,H  14)          109.1193         0.328692   
     48. A(C  11,N  12,H  13)          110.4580         0.328615   
     49. D(H   8,C   1,C   0,C   5)   -179.5896         0.027664   
     50. D(C   2,C   1,C   0,H   6)   -179.3147         0.027664   
     51. D(C   2,C   1,C   0,C   5)      0.8159         0.027664   
     52. D(H   8,C   1,C   0,H   6)      0.2798         0.027664   
     53. D(C  11,C   2,C   1,C   0)    175.7535         0.025735   
     54. D(C   3,C   2,C   1,C   0)     -0.9969         0.025735   
     55. D(C  11,C   2,C   1,H   8)     -3.8439         0.025735   
     56. D(C   3,C   2,C   1,H   8)    179.4058         0.025735   
     57. D(H   9,C   3,C   2,C  11)      3.0495         0.026218   
     58. D(H   9,C   3,C   2,C   1)    179.5721         0.026218   
     59. D(C   4,C   3,C   2,C  11)   -176.2408         0.026218   
     60. D(C   4,C   3,C   2,C   1)      0.2818         0.026218   
     61. D(H  10,C   4,C   3,C   2)   -179.9613         0.026266   
     62. D(C   5,C   4,C   3,H   9)   -178.6949         0.026266   
     63. D(C   5,C   4,C   3,C   2)      0.6134         0.026266   
     64. D(H  10,C   4,C   3,H   9)      0.7305         0.026266   
     65. D(H   7,C   5,C   4,H  10)     -0.2352         0.027167   
     66. D(C   0,C   5,C   4,H  10)    179.7756         0.027167   
     67. D(C   0,C   5,C   4,C   3)     -0.8009         0.027167   
     68. D(H   7,C   5,C   0,H   6)      0.2336         0.026538   
     69. D(H   7,C   5,C   0,C   1)   -179.8978         0.026538   
     70. D(H   7,C   5,C   4,C   3)    179.1883         0.027167   
     71. D(C   4,C   5,C   0,H   6)   -179.7771         0.026538   
     72. D(C   4,C   5,C   0,C   1)      0.0915         0.026538   
     73. D(H  16,C  11,C   2,C   1)    -79.6729         0.012258   
     74. D(H  15,C  11,C   2,C   3)   -146.8315         0.012258   
     75. D(H  15,C  11,C   2,C   1)     36.5966         0.012258   
     76. D(N  12,C  11,C   2,C   3)    -24.2565         0.012258   
     77. D(N  12,C  11,C   2,C   1)    159.1715         0.012258   
     78. D(H  13,N  12,C  11,H  15)    107.8369         0.013035   
     79. D(H  13,N  12,C  11,C   2)    -15.1523         0.013035   
     80. D(H  14,N  12,C  11,H  16)    108.2769         0.013035   
     81. D(H  14,N  12,C  11,H  15)     -7.3434         0.013035   
     82. D(H  14,N  12,C  11,C   2)   -130.3325         0.013035   
     83. D(H  13,N  12,C  11,H  16)   -136.5429         0.013035   
    -----------------------------------------------------------------

Number of atoms                         .... 18
Number of degrees of freedom            .... 83


         *************************************************************
         *                GEOMETRY OPTIMIZATION CYCLE   1            *
         *************************************************************
---------------------------------
CARTESIAN COORDINATES (ANGSTROEM)
---------------------------------
  C     -3.066918    1.837904    1.675201
  C     -1.955023    2.623618    1.410046
  C     -0.711107    2.316993    1.965413
  C     -0.606898    1.214747    2.812349
  C     -1.726452    0.432969    3.091396
  C     -2.955629    0.735772    2.518818
  H     -4.019438    2.087325    1.225246
  H     -3.821185    0.120100    2.726073
  H     -2.045199    3.484981    0.758396
  H      0.341393    0.938957    3.258158
  H     -1.632824   -0.420318    3.751341
  C      0.460735    3.166289    1.545697
  N      1.626508    3.142915    2.485139
  H      1.351672    2.752600    3.382956
  H      1.911645    4.097711    2.685709
  H      0.134310    4.198057    1.420886
  H      0.805373    2.823293    0.569453
  Cu     3.172100    2.187051    1.780873

----------------------------
CARTESIAN COORDINATES (A.U.)
----------------------------
  NO LB      ZA    FRAG     MASS         X           Y           Z
   0 C     6.0000    0    12.011   -5.795634    3.473135    3.165672
   1 C     6.0000    0    12.011   -3.694458    4.957920    2.664601
   2 C     6.0000    0    12.011   -1.343797    4.378482    3.714092
   3 C     6.0000    0    12.011   -1.146872    2.295539    5.314569
   4 C     6.0000    0    12.011   -3.262521    0.818192    5.841892
   5 C     6.0000    0    12.011   -5.585330    1.390408    4.759875
   6 H     1.0000    0     1.008   -7.595637    3.944473    2.315380
   7 H     1.0000    0     1.008   -7.220992    0.226956    5.151532
   8 H     1.0000    0     1.008   -3.864866    6.585659    1.433160
   9 H     1.0000    0     1.008    0.645139    1.774372    6.157027
  10 H     1.0000    0     1.008   -3.085591   -0.794285    7.089007
  11 C     6.0000    0    12.011    0.870663    5.983420    2.920945
  12 N     7.0000    0    14.007    3.073654    5.939248    4.696232
  13 H     1.0000    0     1.008    2.554290    5.201660    6.392861
  14 H     1.0000    0     1.008    3.612485    7.743551    5.075255
  15 H     1.0000    0     1.008    0.253809    7.933177    2.685085
  16 H     1.0000    0     1.008    1.521934    5.335251    1.076110
  17 Cu   29.0000    0    63.550    5.994401    4.132928    3.365362

--------------------------------
INTERNAL COORDINATES (ANGSTROEM)
--------------------------------
 C      0   0   0     0.000000000000     0.00000000     0.00000000
 C      1   0   0     1.387070569951     0.00000000     0.00000000
 C      2   1   0     1.396344525078   120.90978850     0.00000000
 C      3   2   1     1.393953493884   118.80869567   359.00312954
 C      4   3   2     1.393716018647   120.34088254     0.28182175
 C      5   4   3     1.389393271805   120.39088184     0.61338898
 H      1   2   3     1.082573564713   119.69282737   180.68525508
 H      6   5   4     1.082216761452   120.30895825   179.18831717
 H      2   1   3     1.083847494963   119.89535045   179.59456653
 H      4   3   2     1.083541846312   121.10907592   179.57210594
 H      5   4   3     1.082769919693   119.64458803   180.03873151
 C      3   2   1     1.506877305111   117.27266303   175.75351748
 N     12   3   2     1.497371736904   114.95446461   159.17154296
 H     13  12   3     1.016836519303   110.45803864   344.84772024
 H     13  12   3     1.016448312739   109.11934434   229.66746553
 H     12   3   2     1.089346245512   109.43317640    36.59655696
 H     12   3   2     1.090630172250   108.53041969   280.32714561
 Cu    13  12   3     1.948979538098   113.47532745   109.15507217

---------------------------
INTERNAL COORDINATES (A.U.)
---------------------------
 C      0   0   0     0.000000000000     0.00000000     0.00000000
 C      1   0   0     2.621183505629     0.00000000     0.00000000
 C      2   1   0     2.638708740997   120.90978850     0.00000000
 C      3   2   1     2.634190346864   118.80869567   359.00312954
 C      4   3   2     2.633741583703   120.34088254     0.28182175
 C      5   4   3     2.625572776025   120.39088184     0.61338898
 H      1   2   3     2.045767557131   119.69282737   180.68525508
 H      6   5   4     2.045093296683   120.30895825   179.18831717
 H      2   1   3     2.048174936417   119.89535045   179.59456653
 H      4   3   2     2.047597344172   121.10907592   179.57210594
 H      5   4   3     2.046138614268   119.64458803   180.03873151
 C      3   2   1     2.847585424082   117.27266303   175.75351748
 N     12   3   2     2.829622503423   114.95446461   159.17154296
 H     13  12   3     1.921542544453   110.45803864   344.84772024
 H     13  12   3     1.920808940363   109.11934434   229.66746553
 H     12   3   2     2.058566069032   109.43317640    36.59655696
 H     12   3   2     2.060992338945   108.53041969   280.32714561
 Cu    13  12   3     3.683037567621   113.47532745   109.15507217

---------------------
BASIS SET INFORMATION
---------------------
There are 4 groups of distinct atoms

 Group   1 Type C   : 11s6p2d1f contracted to 5s3p2d1f pattern {62111/411/11/1}
 Group   2 Type H   : 5s1p contracted to 3s1p pattern {311/1}
 Group   3 Type N   : 11s6p2d1f contracted to 5s3p2d1f pattern {62111/411/11/1}
 Group   4 Type Cu  : 17s11p7d1f contracted to 6s4p4d1f pattern {842111/6311/4111/1}

Atom   0C    basis set group =>   1
Atom   1C    basis set group =>   1
Atom   2C    basis set group =>   1
Atom   3C    basis set group =>   1
Atom   4C    basis set group =>   1
Atom   5C    basis set group =>   1
Atom   6H    basis set group =>   2
Atom   7H    basis set group =>   2
Atom   8H    basis set group =>   2
Atom   9H    basis set group =>   2
Atom  10H    basis set group =>   2
Atom  11C    basis set group =>   1
Atom  12N    basis set group =>   3
Atom  13H    basis set group =>   2
Atom  14H    basis set group =>   2
Atom  15H    basis set group =>   2
Atom  16H    basis set group =>   2
Atom  17Cu   basis set group =>   4
---------------------------------
AUXILIARY/J BASIS SET INFORMATION
---------------------------------
There are 4 groups of distinct atoms

 Group   1 Type C   : 12s5p4d2f1g contracted to 6s4p3d1f1g pattern {711111/2111/211/2/1}
 Group   2 Type H   : 5s2p1d contracted to 3s1p1d pattern {311/2/1}
 Group   3 Type N   : 12s5p4d2f1g contracted to 6s4p3d1f1g pattern {711111/2111/211/2/1}
 Group   4 Type Cu  : 19s5p5d3f3g contracted to 8s5p4d3f3g pattern {121111111/11111/2111/111/111}

Atom   0C    basis set group =>   1
Atom   1C    basis set group =>   1
Atom   2C    basis set group =>   1
Atom   3C    basis set group =>   1
Atom   4C    basis set group =>   1
Atom   5C    basis set group =>   1
Atom   6H    basis set group =>   2
Atom   7H    basis set group =>   2
Atom   8H    basis set group =>   2
Atom   9H    basis set group =>   2
Atom  10H    basis set group =>   2
Atom  11C    basis set group =>   1
Atom  12N    basis set group =>   3
Atom  13H    basis set group =>   2
Atom  14H    basis set group =>   2
Atom  15H    basis set group =>   2
Atom  16H    basis set group =>   2
Atom  17Cu   basis set group =>   4


           ************************************************************
           *        Program running with 32 parallel MPI-processes    *
           *              working on a common directory               *
           ************************************************************
------------------------------------------------------------------------------
                             ORCA STARTUP CALCULATIONS
                           -- RI-GTO INTEGRALS CHOSEN --
------------------------------------------------------------------------------
------------------------------------------------------------------------------
                   ___                                                        
                  /   \      - P O W E R E D   B Y -                         
                 /     \                                                     
                 |  |  |   _    _      __       _____    __    __             
                 |  |  |  | |  | |    /  \     |  _  \  |  |  /  |          
                  \  \/   | |  | |   /    \    | | | |  |  | /  /          
                 / \  \   | |__| |  /  /\  \   | |_| |  |  |/  /          
                |  |  |   |  __  | /  /__\  \  |    /   |      \           
                |  |  |   | |  | | |   __   |  |    \   |  |\   \          
                \     /   | |  | | |  |  |  |  | |\  \  |  | \   \       
                 \___/    |_|  |_| |__|  |__|  |_| \__\ |__|  \__/        
                                                                              
                      - O R C A' S   B I G   F R I E N D -                    
                                      &                                       
                       - I N T E G R A L  F E E D E R -                       
                                                                              
 v1 FN, 2020, v2 2021, v3 2022-2024                                           
------------------------------------------------------------------------------


----------------------
SHARK INTEGRAL PACKAGE
----------------------

Number of atoms                             ...     18
Number of basis functions                   ...    347
Number of shells                            ...    139
Maximum angular momentum                    ...      3
Integral batch strategy                     ... SHARK/LIBINT Hybrid
RI-J (if used) integral strategy            ... SPLIT-RIJ (Revised 2003 algorithm where possible)
Printlevel                                  ...      1
Contraction scheme used                     ... SEGMENTED contraction
Prescreening option                         ... SCHWARTZ
   Thresh                                   ... 2.500e-11
   Tcut                                     ... 2.500e-12
   Tpresel                                  ... 2.500e-12 
Coulomb Range Separation                    ... NOT USED
Exchange Range Separation                   ... NOT USED
Multipole approximations                    ... NOT USED
Finite Nucleus Model                        ... NOT USED
CABS basis                                  ... NOT available
Auxiliary Coulomb fitting basis             ... AVAILABLE
   # of basis functions in Aux-J            ...    582
   # of shells in Aux-J                     ...    188
   Maximum angular momentum in Aux-J        ...      4
Auxiliary J/K fitting basis                 ... NOT available
Auxiliary Correlation fitting basis         ... NOT available
Auxiliary 'external' fitting basis          ... NOT available

Checking pre-screening integrals            ... done (  0.0 sec) Dimension = 139
   => SHARK Basis and OBASIS are compatible. Storing Pre-screening
Shell pair information
Shell pair cut-off parameter TPreSel        ...   2.5e-12
Total number of shell pairs                 ...      9730
Shell pairs after pre-screening             ...      8513
Total number of primitive shell pairs       ...     31637
Primitive shell pairs kept                  ...     19842
          la=0 lb=0:   2296 shell pairs
          la=1 lb=0:   2371 shell pairs
          la=1 lb=1:    637 shell pairs
          la=2 lb=0:   1294 shell pairs
          la=2 lb=1:    673 shell pairs
          la=2 lb=2:    191 shell pairs
          la=3 lb=0:    558 shell pairs
          la=3 lb=1:    297 shell pairs
          la=3 lb=2:    157 shell pairs
          la=3 lb=3:     39 shell pairs

Checking whether 4 symmetric matrices of dimension 347 fit in memory
:Max Core in MB      =   2000.00
 MB in use           =     14.17
 MB left             =   1985.83
 MB needed           =      1.84
 Data fit in memory  = YES
Calculating RI/J V-Matrix + Cholesky decomp.... done (  0.2 sec)
Calculating Nuclear repulsion               ... done (  0.0 sec) ENN=    575.164406925087 Eh

Diagonalization of the overlap matrix:
Smallest eigenvalue                        ... 8.438e-06
Time for diagonalization                   ...    0.013 sec
Threshold for overlap eigenvalues          ... 1.000e-07
Number of eigenvalues below threshold      ... 0
Time for construction of square roots      ...    0.009 sec
Total time needed                          ...    0.026 sec

-------------------
DFT GRID GENERATION
-------------------

General Integration Accuracy     IntAcc      ... 4.388
Radial Grid Type                 RadialGrid  ... OptM3 with GC (2021)
Angular Grid (max. ang.)         AngularGrid ... 4 (Lebedev-302)
Angular grid pruning method      GridPruning ... 4 (adaptive)
Weight generation scheme         WeightScheme... mBecke (2022)
Basis function cutoff            BFCut       ... 1.0000e-11
Integration weight cutoff        WCut        ... 1.0000e-14
Partially contracted basis set               ... off
Rotationally invariant grid construction     ... off
Angular grids for H and He will be reduced by one unit
Core-polarized basis detected: some atoms will have their core
                               angular grid increased.

Total number of grid points                  ...    88105
Total number of batches                      ...     1387
Average number of points per batch           ...       63
Average number of grid points per atom       ...     4895

--------------------
COSX GRID GENERATION
--------------------

GRIDX 1
-------
General Integration Accuracy     IntAcc      ... 3.816
Radial Grid Type                 RadialGrid  ... OptM3 with GC (2021)
Angular Grid (max. ang.)         AngularGrid ... 1 (Lebedev-50)
Angular grid pruning method      GridPruning ... 4 (adaptive)
Weight generation scheme         WeightScheme... mBecke (2022)
Basis function cutoff            BFCut       ... 1.0000e-11
Integration weight cutoff        WCut        ... 1.0000e-14
Partially contracted basis set               ... on
Rotationally invariant grid construction     ... off
Angular grids for H and He will be reduced by one unit
Core-polarized basis detected: some atoms will have their core
                               angular grid increased.

Total number of grid points                  ...    15803
Total number of batches                      ...      130
Average number of points per batch           ...      121
Average number of grid points per atom       ...      878
UseSFitting                                  ... on

GRIDX 2
-------
General Integration Accuracy     IntAcc      ... 4.020
Radial Grid Type                 RadialGrid  ... OptM3 with GC (2021)
Angular Grid (max. ang.)         AngularGrid ... 2 (Lebedev-110)
Angular grid pruning method      GridPruning ... 4 (adaptive)
Weight generation scheme         WeightScheme... mBecke (2022)
Basis function cutoff            BFCut       ... 1.0000e-11
Integration weight cutoff        WCut        ... 1.0000e-14
Partially contracted basis set               ... on
Rotationally invariant grid construction     ... off
Angular grids for H and He will be reduced by one unit
Core-polarized basis detected: some atoms will have their core
                               angular grid increased.

Total number of grid points                  ...    27110
Total number of batches                      ...      221
Average number of points per batch           ...      122
Average number of grid points per atom       ...     1506
UseSFitting                                  ... on

GRIDX 3
-------
General Integration Accuracy     IntAcc      ... 4.338
Radial Grid Type                 RadialGrid  ... OptM3 with GC (2021)
Angular Grid (max. ang.)         AngularGrid ... 3 (Lebedev-194)
Angular grid pruning method      GridPruning ... 4 (adaptive)
Weight generation scheme         WeightScheme... mBecke (2022)
Basis function cutoff            BFCut       ... 1.0000e-11
Integration weight cutoff        WCut        ... 1.0000e-14
Partially contracted basis set               ... on
Rotationally invariant grid construction     ... off
Angular grids for H and He will be reduced by one unit
Core-polarized basis detected: some atoms will have their core
                               angular grid increased.

Total number of grid points                  ...    52309
Total number of batches                      ...      418
Average number of points per batch           ...      125
Average number of grid points per atom       ...     2906
UseSFitting                                  ... on
Grids setup in   1.4 sec
Initializing property integral containers    ... done (  0.0 sec)

SHARK setup successfully completed in   2.1 seconds

Maximum memory used throughout the entire STARTUP-calculation: 34.1 MB


           ************************************************************
           *        Program running with 32 parallel MPI-processes    *
           *              working on a common directory               *
           ************************************************************
-------------------------------------------------------------------------------
                                 ORCA GUESS
                   Start orbitals & Density for SCF / CASSCF
-------------------------------------------------------------------------------

------------
SCF SETTINGS
------------
Hamiltonian:
 Density Functional     Method          .... DFT(GTOs)
 Exchange Functional    Exchange        .... B88
   X-Alpha parameter    XAlpha          ....  0.666667
   Becke's b parameter  XBeta           ....  0.004200
 Correlation Functional Correlation     .... LYP
 LDA part of GGA corr.  LDAOpt          .... VWN-5
 Gradients option       PostSCFGGA      .... off
 Hybrid DFT is turned on
   Fraction HF Exchange ScalHFX         ....  0.200000
   Scaling of DF-GGA-X  ScalDFX         ....  0.720000
   Scaling of DF-GGA-C  ScalDFC         ....  0.810000
   Scaling of DF-LDA-C  ScalLDAC        ....  1.000000
   Perturbative correction              ....  0.000000
   NL short-range parameter             ....  4.800000
 RI-approximation to the Coulomb term is turned on
   Number of AuxJ basis functions       .... 582
   RIJ-COSX (HFX calculated with COS-X)).... on


General Settings:
 Integral files         IntName         .... orca
 Hartree-Fock type      HFTyp           .... RHF
 Total Charge           Charge          ....    1
 Multiplicity           Mult            ....    1
 Number of Electrons    NEL             ....   86
 Basis Dimension        Dim             ....  347
 Nuclear Repulsion      ENuc            ....    575.1644069251 Eh

Convergence Acceleration:
 AO-DIIS                CNVDIIS         .... on
   Start iteration      DIISMaxIt       ....    12
   Startup error        DIISStart       ....  0.200000
   # of expansion vecs  DIISMaxEq       ....     5
   Bias factor          DIISBfac        ....   1.050
   Max. coefficient     DIISMaxC        ....  10.000
 MO-DIIS                CNVKDIIS        .... off
 Trust-Rad. Augm. Hess. CNVTRAH         .... auto
   Auto Start mean grad. ratio tolernc. ....  1.125000
   Auto Start start iteration           ....    50
   Auto Start num. interpolation iter.  ....    10
   Max. Number of Micro iterations      ....    24
   Max. Number of Macro iterations      .... Maxiter - #DIIS iter
   Number of Davidson start vectors     ....     2
   Converg. threshold    (grad. norm)   ....   1.000e-05
   Grad. Scal. Fac. for Micro threshold ....   0.100
   Minimum threshold for Micro iter.    ....   1.000e-02
   NR start threshold (gradient norm)   ....   1.000e-04
   Initial trust radius                 ....   0.400
   Minimum AH scaling param. (alpha)    ....   1.000
   Maximum AH scaling param. (alpha)    .... 1000.000
   Quad. conv. algorithm                .... NR
   White noise on init. David. guess    .... on
   Maximum white noise                  ....   0.010
   Pseudo random numbers                .... off
   Inactive MOs                         .... canonical
   Orbital update algorithm             .... Taylor
   Preconditioner                       .... Diag
   Full preconditioner red. dimension   ....   250
 SOSCF                 CNVSOSCF           .... on
   Start iteration     SOSCFMaxIt         ....   150
   Startup grad/error  SOSCFStart         ....  0.003300
   Hessian update      SOSCFHessUp        .... L-BFGS
   Autom. constraints  SOSCFAutoConstrain .... off
 Level Shifting         CNVShift        .... on
   Level shift para.    LevelShift      ....    0.2500
   Turn off err/grad.   ShiftErr        ....    0.0010
 Zerner damping         CNVZerner       .... off
 Static damping         CNVDamp         .... on
   Fraction old density DampFac         ....    0.7000
   Max. Damping (<1)    DampMax         ....    0.9800
   Min. Damping (>=0)   DampMin         ....    0.0000
   Turn off err/grad.   DampErr         ....    0.1000

SCF Procedure:
 Maximum # iterations   MaxIter         ....  2000
 SCF integral mode      SCFMode         .... Direct
   Integral package                     .... SHARK and LIBINT hybrid scheme
 Reset frequency        DirectResetFreq ....    15
 Integral Threshold     Thresh          ....  2.500e-11 Eh
 Primitive CutOff       TCut            ....  2.500e-12 Eh

Convergence Tolerance:
 Convergence Check Mode ConvCheckMode   .... Total+1el-Energy
 Convergence forced     ConvForced      .... 0
 Energy Change          TolE            ....  1.000e-08 Eh
 1-El. energy change                    ....  1.000e-05 Eh
 Orbital Gradient       TolG            ....  1.000e-05
 Orbital Rotation angle TolX            ....  1.000e-05
 DIIS Error             TolErr          ....  5.000e-07

------------------------------
INITIAL GUESS: MODEL POTENTIAL
------------------------------
Loading Hartree-Fock densities                     ... done
Calculating cut-offs                               ... done
Initializing the effective Hamiltonian             ... done
Setting up the integral package (SHARK)            ... done
Starting the Coulomb interaction                   ... done (   0.0 sec)
Making the grid                                    ... done (   0.3 sec)
Mapping shells                                     ... done
Starting the XC term evaluation                    ... done (   0.0 sec)
  promolecular density results
     # of electrons  =     86.990018590
     EX              =   -111.059055212
     EC              =     -3.302847227
     EX+EC           =   -114.361902439
Transforming the Hamiltonian                       ... done (   0.0 sec)
Diagonalizing the Hamiltonian                      ... done (   0.0 sec)
Back transforming the eigenvectors                 ... done (   0.0 sec)
Now organizing SCF variables                       ... done
                      ------------------
                      INITIAL GUESS DONE (   0.4 sec)
                      ------------------
             **** ENERGY FILE WAS UPDATED (orca.en.tmp) ****
Finished Guess after   1.6 sec
Maximum memory used throughout the entire GUESS-calculation: 19.5 MB


           ************************************************************
           *        Program running with 32 parallel MPI-processes    *
           *              working on a common directory               *
           ************************************************************

-------------------------------------------------------------------------------------------
                                      ORCA LEAN-SCF
                              memory conserving SCF solver
-------------------------------------------------------------------------------------------

--------------------
CPCM SOLVATION MODEL
--------------------
CPCM parameters:
  Epsilon                                         ...       6.0200
  Refrac                                          ...       1.3723
  Rsolv                                           ...       1.3000
  Surface type                                    ... GAUSSIAN VDW
  Discretization scheme                           ... Constant charge density
    Threshold for H atoms                         ...       5.0000 (charges/Ang^2)
    Threshold for non-H atoms                     ...       5.0000 (charges/Ang^2)
  Epsilon function type                           ...         CPCM
Solvent:                                          ... CUSTOM
Radii:
  Scheme                                          ... Element-dependent radii
  Radius for C  used is    3.8550 Bohr (=   2.0400 Ang.)
  Radius for H  used is    2.4944 Bohr (=   1.3200 Ang.)
  Radius for N  used is    3.5149 Bohr (=   1.8600 Ang.)
  Radius for Cu used is    3.1747 Bohr (=   1.6800 Ang.)
Calculating surface                               ...        done! (  0.0s)
Cavity surface points                             ...         1674
Cavity Volume                                     ...    1088.0643
Cavity Surface-area                               ...     626.6374
Calculating surface distance matrix               ...        done! (  0.0s)
Performing Cholesky decomposition & store         ...        done! (  0.1s)
Overall time for CPCM initialization              ...                 0.1s

----------------------------------------D-I-I-S--------------------------------------------
Iteration    Energy (Eh)           Delta-E    RMSDP     MaxDP     DIISErr   Damp  Time(sec)
-------------------------------------------------------------------------------------------
               ***  Starting incremental Fock matrix formation  ***
    1    -1966.9194773636368154     0.00e+00  7.37e-03  3.67e-02  2.17e-01  0.700   1.5
    2    -1967.0250618513628069    -1.06e-01  5.12e-03  2.18e-02  9.71e-02  0.700   1.1
                               ***Turning on AO-DIIS***
    3    -1967.0684873532873098    -4.34e-02  2.25e-03  7.62e-03  3.20e-02  0.700   1.0
    4    -1967.0944419887746335    -2.60e-02  4.10e-03  1.70e-02  1.67e-02  0.000   1.0
    5    -1967.1511395359298149    -5.67e-02  9.67e-04  5.18e-03  1.37e-02  0.000   1.5
    6    -1967.1514823719730884    -3.43e-04  4.55e-04  2.82e-03  1.24e-02  0.000   1.6
                              *** Initializing SOSCF ***
---------------------------------------S-O-S-C-F--------------------------------------
Iteration    Energy (Eh)           Delta-E    RMSDP     MaxDP     MaxGrad    Time(sec)
--------------------------------------------------------------------------------------
    7    -1967.1516333160370777    -1.51e-04  2.08e-04  8.23e-04  1.73e-03     1.0
               *** Restarting incremental Fock matrix formation ***
    8    -1967.1516568090246437    -2.35e-05  1.37e-04  6.53e-04  1.88e-04     2.0
    9    -1967.1516561940834436     6.15e-07  6.29e-05  3.86e-04  4.19e-04     1.1
   10    -1967.1516581313508141    -1.94e-06  4.67e-05  2.78e-04  1.44e-04     1.2
   11    -1967.1516576882972913     4.43e-07  2.44e-05  2.12e-04  1.28e-04     1.1
   12    -1967.1516584161145147    -7.28e-07  7.98e-06  4.74e-05  5.20e-06     1.0
   13    -1967.1516584049190897     1.12e-08  4.63e-06  3.22e-05  8.00e-06     1.0
   14    -1967.1516584201913247    -1.53e-08  9.25e-06  5.65e-05  1.56e-06     0.9
                  *** Gradient check signals convergence ***

               *****************************************************
               *                     SUCCESS                       *
               *           SCF CONVERGED AFTER  14 CYCLES          *
               *****************************************************

Recomputing exchange energy using gridx3       ... done (    1.369 sec)
Old exchange energy                            :    -22.316430097 Eh
New exchange energy                            :    -22.316425000 Eh
Exchange energy change after final integration :      0.000005097 Eh
Total energy after final integration           :  -1967.151653332 Eh
             **** ENERGY FILE WAS UPDATED (orca.en.tmp) ****

----------------
TOTAL SCF ENERGY
----------------

Total Energy       :      -1967.15165333164532 Eh          -53528.91784 eV

Components:
Nuclear Repulsion  :        575.16440692508741 Eh           15651.01919 eV
Electronic Energy  :      -2542.21407151280346 Eh          -69177.16178 eV
One Electron Energy:      -3855.91597585877753 Eh         -104924.80798 eV
Two Electron Energy:       1313.70190434597384 Eh           35747.64619 eV
CPCM Dielectric    :         -0.10199384103664 Eh              -2.77539 eV

Virial components:
Potential Energy   :      -3930.32710423698700 Eh         -106949.63772 eV
Kinetic Energy     :       1963.17545090534145 Eh           53420.71988 eV
Virial Ratio       :          2.00202539331086

DFT components:
N(Alpha)           :       42.999993235210 electrons
N(Beta)            :       42.999993235210 electrons
N(Total)           :       85.999986470420 electrons
E(X)               :      -88.911850323416 Eh       
E(C)               :       -3.855716531616 Eh       
E(XC)              :      -92.767566855032 Eh       

CPCM Solvation Model Properties:
Surface-charge          :         -1.03105499627912
Corrected charge        :         -1.00000000000000
Outlying charge corr.   :          0.00005856985692 Eh               0.00159 eV
Free-energy (cav+disp)  :  This term is not implemented in the current solvation scheme

---------------
SCF CONVERGENCE
---------------

  Last Energy change         ...    1.5272e-08  Tolerance :   1.0000e-08
  Last MAX-Density change    ...    5.6480e-05  Tolerance :   1.0000e-07
  Last RMS-Density change    ...    9.2538e-06  Tolerance :   5.0000e-09
  Last DIIS Error            ...    1.7307e-03  Tolerance :   5.0000e-07
  Last Orbital Gradient      ...    1.5595e-06  Tolerance :   1.0000e-05
  Last Orbital Rotation      ...    4.8327e-06  Tolerance :   1.0000e-05


----------------
ORBITAL ENERGIES
----------------

  NO   OCC          E(Eh)            E(eV) 
   0   2.0000    -323.030389     -8790.1038 
   1   2.0000     -38.819853     -1056.3419 
   2   2.0000     -34.024742      -925.8603 
   3   2.0000     -34.024591      -925.8562 
   4   2.0000     -34.024493      -925.8535 
   5   2.0000     -14.390226      -391.5780 
   6   2.0000     -10.239937      -278.6429 
   7   2.0000     -10.209842      -277.8239 
   8   2.0000     -10.196961      -277.4734 
   9   2.0000     -10.193450      -277.3779 
  10   2.0000     -10.192760      -277.3591 
  11   2.0000     -10.192037      -277.3394 
  12   2.0000     -10.190046      -277.2852 
  13   2.0000      -4.313177      -117.3675 
  14   2.0000      -2.809475       -76.4497 
  15   2.0000      -2.806766       -76.3760 
  16   2.0000      -2.806583       -76.3710 
  17   2.0000      -0.955578       -26.0026 
  18   2.0000      -0.879779       -23.9400 
  19   2.0000      -0.790128       -21.5005 
  20   2.0000      -0.768411       -20.9095 
  21   2.0000      -0.706021       -19.2118 
  22   2.0000      -0.630106       -17.1460 
  23   2.0000      -0.611067       -16.6280 
  24   2.0000      -0.562216       -15.2987 
  25   2.0000      -0.532482       -14.4896 
  26   2.0000      -0.501730       -13.6528 
  27   2.0000      -0.485257       -13.2045 
  28   2.0000      -0.475975       -12.9519 
  29   2.0000      -0.458082       -12.4651 
  30   2.0000      -0.440989       -11.9999 
  31   2.0000      -0.424480       -11.5507 
  32   2.0000      -0.398112       -10.8332 
  33   2.0000      -0.378329       -10.2949 
  34   2.0000      -0.365553        -9.9472 
  35   2.0000      -0.362835        -9.8732 
  36   2.0000      -0.301282        -8.1983 
  37   2.0000      -0.300939        -8.1890 
  38   2.0000      -0.300427        -8.1750 
  39   2.0000      -0.300194        -8.1687 
  40   2.0000      -0.279773        -7.6130 
  41   2.0000      -0.276353        -7.5199 
  42   2.0000      -0.269142        -7.3237 
  43   0.0000      -0.100049        -2.7225 
  44   0.0000      -0.036689        -0.9984 
  45   0.0000      -0.033921        -0.9230 
  46   0.0000       0.017168         0.4672 
  47   0.0000       0.022396         0.6094 
  48   0.0000       0.036283         0.9873 
  49   0.0000       0.048808         1.3281 
  50   0.0000       0.061382         1.6703 
  51   0.0000       0.077161         2.0996 
  52   0.0000       0.080830         2.1995 
  53   0.0000       0.091166         2.4808 
*Only the first 10 virtual orbitals were printed.

                    ********************************
                    * MULLIKEN POPULATION ANALYSIS *
                    ********************************

-----------------------
MULLIKEN ATOMIC CHARGES
-----------------------
   0 C :   -0.118472
   1 C :   -0.228861
   2 C :    0.111475
   3 C :   -0.208242
   4 C :   -0.133906
   5 C :   -0.147549
   6 H :    0.142540
   7 H :    0.142871
   8 H :    0.135848
   9 H :    0.132637
  10 H :    0.141706
  11 C :   -0.015668
  12 N :   -0.468622
  13 H :    0.273333
  14 H :    0.278810
  15 H :    0.158564
  16 H :    0.138034
  17 Cu:    0.665500
Sum of atomic charges:    1.0000000

--------------------------------
MULLIKEN REDUCED ORBITAL CHARGES
--------------------------------
  0 C s       :     3.211062  s :     3.211062
      pz      :     0.945535  p :     2.818777
      px      :     0.953969
      py      :     0.919273
      dz2     :     0.013207  d :     0.081334
      dxz     :     0.016136
      dyz     :     0.012179
      dx2y2   :     0.022872
      dxy     :     0.016940
      f0      :     0.000802  f :     0.007299
      f+1     :     0.000379
      f-1     :     0.001395
      f+2     :     0.000908
      f-2     :     0.001432
      f+3     :     0.001562
      f-3     :     0.000822

  1 C s       :     3.269632  s :     3.269632
      pz      :     0.984920  p :     2.872841
      px      :     0.907305
      py      :     0.980615
      dz2     :     0.007292  d :     0.078993
      dxz     :     0.019208
      dyz     :     0.011665
      dx2y2   :     0.023382
      dxy     :     0.017446
      f0      :     0.000592  f :     0.007394
      f+1     :     0.001199
      f-1     :     0.000646
      f+2     :     0.001133
      f-2     :     0.001134
      f+3     :     0.001535
      f-3     :     0.001155

  2 C s       :     3.171825  s :     3.171825
      pz      :     0.898700  p :     2.584848
      px      :     0.842009
      py      :     0.844139
      dz2     :     0.022855  d :     0.121967
      dxz     :     0.028274
      dyz     :     0.011910
      dx2y2   :     0.030309
      dxy     :     0.028618
      f0      :     0.000661  f :     0.009885
      f+1     :     0.001456
      f-1     :     0.001435
      f+2     :     0.001169
      f-2     :     0.001683
      f+3     :     0.001846
      f-3     :     0.001634

  3 C s       :     3.249486  s :     3.249486
      pz      :     0.983052  p :     2.871158
      px      :     0.994532
      py      :     0.893574
      dz2     :     0.013623  d :     0.080260
      dxz     :     0.015953
      dyz     :     0.012293
      dx2y2   :     0.023772
      dxy     :     0.014619
      f0      :     0.000786  f :     0.007337
      f+1     :     0.000388
      f-1     :     0.001410
      f+2     :     0.000932
      f-2     :     0.001469
      f+3     :     0.001500
      f-3     :     0.000853

  4 C s       :     3.217494  s :     3.217494
      pz      :     0.958960  p :     2.826855
      px      :     0.905813
      py      :     0.962082
      dz2     :     0.008624  d :     0.082182
      dxz     :     0.020306
      dyz     :     0.010943
      dx2y2   :     0.023648
      dxy     :     0.018662
      f0      :     0.000570  f :     0.007375
      f+1     :     0.001256
      f-1     :     0.000673
      f+2     :     0.001100
      f-2     :     0.001194
      f+3     :     0.001508
      f-3     :     0.001075

  5 C s       :     3.225465  s :     3.225465
      pz      :     0.939050  p :     2.835068
      px      :     0.954071
      py      :     0.941947
      dz2     :     0.017017  d :     0.079801
      dxz     :     0.014973
      dyz     :     0.010073
      dx2y2   :     0.014286
      dxy     :     0.023452
      f0      :     0.000460  f :     0.007215
      f+1     :     0.001037
      f-1     :     0.001323
      f+2     :     0.000958
      f-2     :     0.001232
      f+3     :     0.000960
      f-3     :     0.001245

  6 H s       :     0.835221  s :     0.835221
      pz      :     0.006039  p :     0.022239
      px      :     0.011761
      py      :     0.004439

  7 H s       :     0.834869  s :     0.834869
      pz      :     0.004633  p :     0.022260
      px      :     0.010306
      py      :     0.007321

  8 H s       :     0.841868  s :     0.841868
      pz      :     0.008059  p :     0.022284
      px      :     0.003760
      py      :     0.010464

  9 H s       :     0.844792  s :     0.844792
      pz      :     0.006179  p :     0.022572
      px      :     0.011441
      py      :     0.004951

 10 H s       :     0.836028  s :     0.836028
      pz      :     0.008134  p :     0.022265
      px      :     0.003671
      py      :     0.010460

 11 C s       :     3.198740  s :     3.198740
      pz      :     0.915504  p :     2.707435
      px      :     0.792297
      py      :     0.999635
      dz2     :     0.028357  d :     0.101285
      dxz     :     0.023138
      dyz     :     0.012209
      dx2y2   :     0.023301
      dxy     :     0.014279
      f0      :     0.000758  f :     0.008208
      f+1     :     0.002085
      f-1     :     0.000483
      f+2     :     0.001139
      f-2     :     0.001339
      f+3     :     0.001362
      f-3     :     0.001041

 12 N s       :     3.500206  s :     3.500206
      pz      :     1.243247  p :     3.921327
      px      :     1.358615
      py      :     1.319466
      dz2     :     0.012096  d :     0.044537
      dxz     :     0.007895
      dyz     :     0.006099
      dx2y2   :     0.010002
      dxy     :     0.008445
      f0      :     0.000220  f :     0.002551
      f+1     :     0.000518
      f-1     :     0.000311
      f+2     :     0.000320
      f-2     :     0.000429
      f+3     :     0.000375
      f-3     :     0.000379

 13 H s       :     0.688640  s :     0.688640
      pz      :     0.018417  p :     0.038027
      px      :     0.009557
      py      :     0.010053

 14 H s       :     0.684365  s :     0.684365
      pz      :     0.007886  p :     0.036825
      px      :     0.009866
      py      :     0.019073

 15 H s       :     0.819814  s :     0.819814
      pz      :     0.004227  p :     0.021622
      px      :     0.004754
      py      :     0.012641

 16 H s       :     0.839914  s :     0.839914
      pz      :     0.012026  p :     0.022052
      px      :     0.004703
      py      :     0.005322

 17 Cus       :     6.334974  s :     6.334974
      pz      :     4.016576  p :    12.098982
      px      :     4.058305
      py      :     4.024101
      dz2     :     1.990295  d :     9.900457
      dxz     :     1.974446
      dyz     :     1.988347
      dx2y2   :     1.989809
      dxy     :     1.957559
      f0      :     0.000012  f :     0.000087
      f+1     :     0.000009
      f-1     :     0.000004
      f+2     :     0.000010
      f-2     :     0.000018
      f+3     :     0.000010
      f-3     :     0.000024



                     *******************************
                     * LOEWDIN POPULATION ANALYSIS *
                     *******************************

----------------------
LOEWDIN ATOMIC CHARGES
----------------------
   0 C :   -0.133674
   1 C :   -0.110483
   2 C :   -0.153996
   3 C :   -0.123561
   4 C :   -0.135926
   5 C :   -0.138753
   6 H :    0.151102
   7 H :    0.149993
   8 H :    0.154061
   9 H :    0.150667
  10 H :    0.150490
  11 C :   -0.210623
  12 N :   -0.020794
  13 H :    0.194735
  14 H :    0.201375
  15 H :    0.148675
  16 H :    0.154521
  17 Cu:    0.572191

-------------------------------
LOEWDIN REDUCED ORBITAL CHARGES
-------------------------------
  0 C s       :     2.765919  s :     2.765919
      pz      :     0.936650  p :     2.938356
      px      :     1.001632
      py      :     1.000074
      dz2     :     0.049865  d :     0.385912
      dxz     :     0.075070
      dyz     :     0.060704
      dx2y2   :     0.108871
      dxy     :     0.091402
      f0      :     0.005214  f :     0.043487
      f+1     :     0.003328
      f-1     :     0.005151
      f+2     :     0.004980
      f-2     :     0.008518
      f+3     :     0.010015
      f-3     :     0.006282

  1 C s       :     2.757138  s :     2.757138
      pz      :     0.925867  p :     2.928102
      px      :     1.038300
      py      :     0.963935
      dz2     :     0.034132  d :     0.382167
      dxz     :     0.081013
      dyz     :     0.055090
      dx2y2   :     0.118945
      dxy     :     0.092987
      f0      :     0.003726  f :     0.043076
      f+1     :     0.007535
      f-1     :     0.001604
      f+2     :     0.004644
      f-2     :     0.007508
      f+3     :     0.010281
      f-3     :     0.007778

  2 C s       :     2.711958  s :     2.711958
      pz      :     0.923577  p :     2.868614
      px      :     0.986795
      py      :     0.958242
      dz2     :     0.082249  d :     0.516238
      dxz     :     0.107707
      dyz     :     0.066322
      dx2y2   :     0.120600
      dxy     :     0.139360
      f0      :     0.005087  f :     0.057186
      f+1     :     0.007731
      f-1     :     0.005168
      f+2     :     0.007122
      f-2     :     0.010616
      f+3     :     0.012334
      f-3     :     0.009128

  3 C s       :     2.757303  s :     2.757303
      pz      :     0.949529  p :     2.942039
      px      :     0.999521
      py      :     0.992989
      dz2     :     0.049563  d :     0.381393
      dxz     :     0.075122
      dyz     :     0.059710
      dx2y2   :     0.108254
      dxy     :     0.088743
      f0      :     0.005204  f :     0.042827
      f+1     :     0.003359
      f-1     :     0.005044
      f+2     :     0.004933
      f-2     :     0.008412
      f+3     :     0.009646
      f-3     :     0.006229

  4 C s       :     2.766508  s :     2.766508
      pz      :     0.925615  p :     2.940027
      px      :     1.058441
      py      :     0.955971
      dz2     :     0.035103  d :     0.386146
      dxz     :     0.084663
      dyz     :     0.055024
      dx2y2   :     0.117667
      dxy     :     0.093689
      f0      :     0.003698  f :     0.043245
      f+1     :     0.007871
      f-1     :     0.001642
      f+2     :     0.004704
      f-2     :     0.007735
      f+3     :     0.010070
      f-3     :     0.007526

  5 C s       :     2.766659  s :     2.766659
      pz      :     0.951549  p :     2.946283
      px      :     1.012946
      py      :     0.981788
      dz2     :     0.066991  d :     0.382514
      dxz     :     0.070223
      dyz     :     0.052139
      dx2y2   :     0.075103
      dxy     :     0.118058
      f0      :     0.003887  f :     0.043297
      f+1     :     0.005541
      f-1     :     0.004884
      f+2     :     0.006458
      f-2     :     0.007702
      f+3     :     0.007551
      f-3     :     0.007274

  6 H s       :     0.789862  s :     0.789862
      pz      :     0.016399  p :     0.059036
      px      :     0.029863
      py      :     0.012774

  7 H s       :     0.790725  s :     0.790725
      pz      :     0.013176  p :     0.059282
      px      :     0.026586
      py      :     0.019520

  8 H s       :     0.786748  s :     0.786748
      pz      :     0.021429  p :     0.059191
      px      :     0.010907
      py      :     0.026855

  9 H s       :     0.789277  s :     0.789277
      pz      :     0.017035  p :     0.060055
      px      :     0.029207
      py      :     0.013813

 10 H s       :     0.790426  s :     0.790426
      pz      :     0.021288  p :     0.059083
      px      :     0.011003
      py      :     0.026792

 11 C s       :     2.776719  s :     2.776719
      pz      :     0.973031  p :     2.950569
      px      :     0.929137
      py      :     1.048401
      dz2     :     0.099469  d :     0.433401
      dxz     :     0.108413
      dyz     :     0.044599
      dx2y2   :     0.102046
      dxy     :     0.078873
      f0      :     0.004772  f :     0.049934
      f+1     :     0.010482
      f-1     :     0.004620
      f+2     :     0.007172
      f-2     :     0.008572
      f+3     :     0.008162
      f-3     :     0.006155

 12 N s       :     3.025062  s :     3.025062
      pz      :     1.223556  p :     3.832178
      px      :     1.340877
      py      :     1.267745
      dz2     :     0.039343  d :     0.152699
      dxz     :     0.031785
      dyz     :     0.023717
      dx2y2   :     0.031136
      dxy     :     0.026719
      f0      :     0.001176  f :     0.010855
      f+1     :     0.002379
      f-1     :     0.001393
      f+2     :     0.001220
      f-2     :     0.001590
      f+3     :     0.001450
      f-3     :     0.001647

 13 H s       :     0.697757  s :     0.697757
      pz      :     0.051805  p :     0.107508
      px      :     0.026432
      py      :     0.029271

 14 H s       :     0.692555  s :     0.692555
      pz      :     0.021484  p :     0.106070
      px      :     0.028012
      py      :     0.056574

 15 H s       :     0.791179  s :     0.791179
      pz      :     0.012424  p :     0.060146
      px      :     0.013606
      py      :     0.034116

 16 H s       :     0.785662  s :     0.785662
      pz      :     0.030892  p :     0.059817
      px      :     0.012790
      py      :     0.016134

 17 Cus       :     6.292855  s :     6.292855
      pz      :     4.025783  p :    12.112757
      px      :     4.057044
      py      :     4.029930
      dz2     :     2.003720  d :    10.022078
      dxz     :     2.008760
      dyz     :     2.001895
      dx2y2   :     2.014402
      dxy     :     1.993300
      f0      :     0.000016  f :     0.000118
      f+1     :     0.000012
      f-1     :     0.000005
      f+2     :     0.000013
      f-2     :     0.000026
      f+3     :     0.000013
      f-3     :     0.000032



                      *****************************
                      * MAYER POPULATION ANALYSIS *
                      *****************************

  NA   - Mulliken gross atomic population
  ZA   - Total nuclear charge
  QA   - Mulliken gross atomic charge
  VA   - Mayer's total valence
  BVA  - Mayer's bonded valence
  FA   - Mayer's free valence

  ATOM       NA         ZA         QA         VA         BVA        FA
  0 C      6.1185     6.0000    -0.1185     3.8777     3.8777    -0.0000
  1 C      6.2289     6.0000    -0.2289     3.9561     3.9561    -0.0000
  2 C      5.8885     6.0000     0.1115     3.6908     3.6908    -0.0000
  3 C      6.2082     6.0000    -0.2082     3.8721     3.8721    -0.0000
  4 C      6.1339     6.0000    -0.1339     3.9152     3.9152     0.0000
  5 C      6.1475     6.0000    -0.1475     3.8961     3.8961     0.0000
  6 H      0.8575     1.0000     0.1425     0.9645     0.9645    -0.0000
  7 H      0.8571     1.0000     0.1429     0.9647     0.9647    -0.0000
  8 H      0.8642     1.0000     0.1358     0.9713     0.9713    -0.0000
  9 H      0.8674     1.0000     0.1326     0.9829     0.9829    -0.0000
 10 H      0.8583     1.0000     0.1417     0.9659     0.9659     0.0000
 11 C      6.0157     6.0000    -0.0157     3.6678     3.6678    -0.0000
 12 N      7.4686     7.0000    -0.4686     3.2896     3.2896    -0.0000
 13 H      0.7267     1.0000     0.2733     0.9322     0.9322    -0.0000
 14 H      0.7212     1.0000     0.2788     0.9261     0.9261    -0.0000
 15 H      0.8414     1.0000     0.1586     0.9567     0.9567    -0.0000
 16 H      0.8620     1.0000     0.1380     0.9593     0.9593    -0.0000
 17 Cu    28.3345    29.0000     0.6655     0.6765     0.6765     0.0000

  Mayer bond orders larger than 0.100000
B(  0-C ,  1-C ) :   1.4286 B(  0-C ,  5-C ) :   1.3803 B(  0-C ,  6-H ) :   0.9741 
B(  1-C ,  2-C ) :   1.3676 B(  1-C ,  8-H ) :   0.9766 B(  2-C ,  3-C ) :   1.3424 
B(  2-C , 11-C ) :   0.9468 B(  3-C ,  4-C ) :   1.4212 B(  3-C ,  9-H ) :   0.9591 
B(  4-C ,  5-C ) :   1.4084 B(  4-C , 10-H ) :   0.9705 B(  5-C ,  7-H ) :   0.9696 
B( 11-C , 12-N ) :   0.7934 B( 11-C , 15-H ) :   0.9733 B( 11-C , 16-H ) :   0.9629 
B( 12-N , 13-H ) :   0.9028 B( 12-N , 14-H ) :   0.9104 B( 12-N , 17-Cu) :   0.6547 


-------
TIMINGS
-------

Total SCF time: 0 days 0 hours 0 min 21 sec 

Total time                  ....      21.476 sec
Sum of individual times     ....      19.726 sec  ( 91.9%)

SCF preparation             ....       1.287 sec  (  6.0%)
Fock matrix formation       ....      17.099 sec  ( 79.6%)
  Startup                   ....       0.045 sec  (  0.3% of F)
  Split-RI-J                ....       1.358 sec  (  7.9% of F)
  Chain of spheres X        ....       9.246 sec  ( 54.1% of F)
  XC integration            ....       6.034 sec  ( 35.3% of F)
    XC Preparation          ....       0.000 sec  (  0.0% of XC)
    Basis function eval.    ....       0.204 sec  (  3.4% of XC)
    Density eval.           ....       0.208 sec  (  3.4% of XC)
    XC-Functional eval.     ....       0.015 sec  (  0.3% of XC)
    XC-Potential eval.      ....       0.191 sec  (  3.2% of XC)
  CPCM terms                ....       1.449 sec  (  8.5% of F)
Diagonalization             ....       0.000 sec  (  0.0%)
Density matrix formation    ....       0.201 sec  (  0.9%)
Total Energy calculation    ....       0.117 sec  (  0.5%)
Population analysis         ....       0.054 sec  (  0.3%)
Orbital Transformation      ....       0.089 sec  (  0.4%)
Orbital Orthonormalization  ....       0.000 sec  (  0.0%)
DIIS solution               ....       0.505 sec  (  2.4%)
SOSCF solution              ....       0.373 sec  (  1.7%)
Finished LeanSCF after  21.6 sec

Maximum memory used throughout the entire LEANSCF-calculation: 32.1 MB


           ************************************************************
           *        Program running with 32 parallel MPI-processes    *
           *              working on a common directory               *
           ************************************************************

------------------------------------------------------------------------------
                         ORCA PROPERTY INTEGRAL CALCULATIONS
------------------------------------------------------------------------------

GBWName                                   ... orca.gbw
Number of atoms                           ...     18
Number of basis functions                 ...    347
Max core memory                           ...   2000 MB

Dipole integrals                          ... YES
Quadrupole integrals                      ...  NO
Linear momentum integrals                 ...  NO
Angular momentum integrals                ...  NO
Higher moments length integrals           ...  NO
Higher moments velocity integrals         ...  NO
Kinetic energy integrals                  ...  NO
GIAO right hand sides                     ...  NO
GIAO dipole derivative integrals          ...  NO
SOC integrals                             ...  NO
EPR diamagnetic integrals (GIAO)          ...  NO
EPR gauge integrals                       ...  NO
Field gradient integrals                  ...  NO (   0 nuclei)
Spin-dipole/Fermi contact integrals       ...  NO (   0 nuclei)
Contact density integrals                 ...  NO (   0 nuclei)
Nucleus-orbit integrals                   ...  NO (   0 nuclei)
Geometric perturbations                   ...  NO (  18 nuclei)

Choice of electric origin   ... Center of mass
Position of electric origin ... (  1.0017,  3.8892,  3.8558) 
Choice of magnetic origin   ... GIAO
Position of magnetic origin ... (  0.0000,  0.0000,  0.0000) 

Calculating integrals                     ... Electric Dipole (Length)     done (  0.0 sec)

Property integrals calculated in   0.0 sec

Maximum memory used throughout the entire PROPINT-calculation: 20.4 MB


-------------------------------------------------------------------------------
                          DFT DISPERSION CORRECTION                            
                                                                               
                              DFTD3 V3.1  Rev 1                                
                          USING Becke-Johnson damping                          
-------------------------------------------------------------------------------
The B3LYP functional is recognized
Active option DFTDOPT                   ...         4   

molecular C6(AA) [au] = 4488.241483 


            DFT-D V3
 parameters
 s6 scaling factor         :     1.0000 
 a1 scaling factor         :     0.3981 
 s8 scaling factor         :     1.9889 
 a2 scaling factor         :     4.4211 
 ad hoc parameters k1-k3   :    16.0000     1.3333    -4.0000 

 Edisp/kcal,au: -21.460444835862  -0.034199392095 
 E6   /kcal   :  -9.789442192 
 E8   /kcal   : -11.671002644 
 % E8         :  54.383787164 

-------------------------   ----------------
Dispersion correction           -0.034199392
-------------------------   ----------------


-------------------------   --------------------
FINAL SINGLE POINT ENERGY     -1967.185852723740
-------------------------   --------------------



           ************************************************************
           *        Program running with 32 parallel MPI-processes    *
           *              working on a common directory               *
           ************************************************************
------------------------------------------------------------------------------
                         ORCA SCF GRADIENT CALCULATION
------------------------------------------------------------------------------

Nuc. rep. gradient        (SHARK) ... done (  0.0 sec)
HCore & Overlap gradient  (SHARK) ... done (  0.0 sec)
Split-RIJ-J gradient      (SHARK) ... done (  0.4 sec)
done (  4.5 sec)
XC gradient                       ... done (  0.6 sec)
CPCM gradient                     ... done (  0.5 sec)
Dispersion correction             ... done (  0.0 sec)

-------------------
DISPERSION GRADIENT
-------------------

   1   C   :   -0.000368730   -0.000012796   -0.000084480
   2   C   :   -0.000386085    0.000059911   -0.000140036
   3   C   :   -0.000372021    0.000013175   -0.000069258
   4   C   :   -0.000397135   -0.000402073    0.000246645
   5   C   :   -0.000180626   -0.000325853    0.000194108
   6   C   :   -0.000248611   -0.000160392    0.000053529
   7   H   :   -0.000259393    0.000057956   -0.000114176
   8   H   :   -0.000226957   -0.000160268    0.000054809
   9   H   :   -0.000171505    0.000211703   -0.000188661
  10   H   :    0.000021648   -0.000279130    0.000261140
  11   H   :   -0.000000309   -0.000236740    0.000176798
  12   C   :    0.000219495    0.000316876   -0.000170026
  13   N   :    0.000501368    0.000227121    0.000047454
  14   H   :    0.000220442    0.000094900    0.000208363
  15   H   :    0.000184231    0.000204180    0.000092971
  16   H   :   -0.000013921    0.000329970   -0.000119274
  17   H   :    0.000132036    0.000108073   -0.000294265
  18   Cu  :    0.001346073   -0.000046612   -0.000155639

Difference to translation invariance:
           :    0.0000000000   -0.0000000000   -0.0000000000

Difference to rotation invariance:
           :   -0.0000000000    0.0000000000    0.0000000000

Norm of the Dispersion gradient    ...    0.0020877931
RMS gradient                       ...    0.0002841127
MAX gradient                       ...    0.0013460734

------------------
CARTESIAN GRADIENT
------------------

   1   C   :    0.000274498    0.000264019   -0.000198355
   2   C   :    0.000007584   -0.000080789    0.000267916
   3   C   :    0.000057940    0.000170539    0.000343354
   4   C   :   -0.000210389   -0.000140721    0.000455068
   5   C   :    0.000028275    0.000118614    0.000042948
   6   C   :   -0.000156969   -0.000133687   -0.000056024
   7   H   :    0.000204146    0.000044492   -0.000341013
   8   H   :    0.000003969    0.000034310   -0.000378257
   9   H   :    0.000367513    0.000120605    0.000101472
  10   H   :   -0.000123082   -0.000042068    0.000465219
  11   H   :   -0.000257042   -0.000136436    0.000021264
  12   C   :    0.000076010   -0.000211877    0.000233780
  13   N   :    0.000046625    0.000264196    0.000275619
  14   H   :    0.000396577   -0.000295085    0.000163156
  15   H   :   -0.000450853    0.000314181    0.000651805
  16   H   :    0.000213012   -0.000245336   -0.000557909
  17   H   :    0.000126796   -0.000897620    0.000481943
  18   Cu  :   -0.000604611    0.000852664   -0.001971984

Difference to translation invariance:
           :   -0.0000000002    0.0000000000   -0.0000000001

Difference to rotation invariance:
           :    0.0007536252    0.0000994908    0.0001441695

Norm of the Cartesian gradient     ...    0.0030385004
RMS gradient                       ...    0.0004134875
MAX gradient                       ...    0.0019719840

-------
TIMINGS
-------

Total SCF gradient time     ....        6.040 sec

[...]
     34       0.001062  -0.000474   0.000336  -0.000131   0.001450   0.001264
     35      -0.000562   0.000330  -0.000172   0.000178  -0.001103   0.000828
     36      -0.000064   0.000092  -0.000026   0.000066   0.017886  -0.072707
     37      -0.000037   0.000043   0.000007   0.000010   0.053894   0.025233
     38      -0.000006   0.000010   0.000004   0.000008   0.010811   0.024507
     39      -0.000217   0.000243   0.000055  -0.000079   0.357492   0.262643
     40      -0.000401  -0.000040  -0.000211   0.000254  -0.645450  -0.526230
     41      -0.000277   0.000108  -0.000139   0.000094  -0.253020  -0.189933
     42      -0.000015  -0.000155  -0.000054   0.000103  -0.601253   0.746989
     43      -0.000197   0.000291  -0.000018   0.000214  -0.108659   0.172522
     44      -0.000105   0.000193  -0.000119   0.000096   0.121256  -0.152806
     45       0.001961  -0.000609   0.000548  -0.000133   0.002138   0.001667
     46      -0.012058   0.006022  -0.002596   0.002588  -0.008562  -0.005312
     47       0.008921  -0.004379   0.001977  -0.001711   0.002207   0.003364
     48       0.000988   0.001066  -0.000358   0.001798   0.005315   0.011658
     49      -0.001813   0.000134  -0.000382  -0.000904  -0.007784  -0.010613
     50      -0.000341  -0.000759   0.000244  -0.001115  -0.006354  -0.010096
     51       0.000009  -0.000008  -0.000004  -0.000014   0.000012  -0.000032
     52       0.000007   0.000007   0.000003  -0.000003   0.000055   0.000046
     53       0.000010  -0.000001   0.000004  -0.000009  -0.000007  -0.000018


-----------
IR SPECTRUM
-----------

 Mode   freq       eps      Int      T**2         TX        TY        TZ
       cm**-1   L/(mol*cm) km/mol    a.u.
----------------------------------------------------------------------------
  6:     31.60   0.001058    5.35  0.010451  ( 0.082187  0.022007  0.056672)
  7:     63.77   0.000632    3.19  0.003092  ( 0.042559  0.020723  0.029184)
  8:    105.71   0.000633    3.20  0.001870  ( 0.036266 -0.009625 -0.021492)
  9:    151.38   0.002758   13.94  0.005686  (-0.041720 -0.010382 -0.061950)
 10:    299.59   0.000445    2.25  0.000464  (-0.018160 -0.010578 -0.004730)
 11:    349.82   0.000317    1.60  0.000283  (-0.009995  0.011083  0.007734)
 12:    412.51   0.000606    3.06  0.000459  ( 0.006136  0.012599  0.016198)
 13:    423.14   0.000375    1.90  0.000277  (-0.004457 -0.014350 -0.007140)
 14:    509.95   0.002351   11.88  0.001439  ( 0.020494  0.010964  0.029979)
 15:    536.10   0.007739   39.11  0.004505  ( 0.061058 -0.025850 -0.010425)
 16:    629.90   0.007603   38.42  0.003766  ( 0.050796 -0.011152 -0.032586)
 17:    635.85   0.000031    0.15  0.000015  (-0.000142  0.003834  0.000559)
 18:    725.78   0.017201   86.93  0.007396  ( 0.014574  0.028036  0.079983)
 19:    775.17   0.008843   44.69  0.003560  ( 0.027460  0.018876  0.049495)
 20:    818.35   0.004228   21.36  0.001612  (-0.030814 -0.010202 -0.023634)
 21:    859.44   0.000470    2.37  0.000171  ( 0.011903 -0.004992  0.001991)
 22:    928.35   0.009444   47.73  0.003175  (-0.027372 -0.008663 -0.048480)
 23:    936.94   0.000697    3.52  0.000232  (-0.014672 -0.002149 -0.003518)
 24:    978.62   0.003315   16.75  0.001057  ( 0.022926  0.010884  0.020324)
 25:    987.68   0.000173    0.87  0.000055  ( 0.006560 -0.000891  0.003278)
 26:   1015.50   0.000156    0.79  0.000048  ( 0.002328  0.000091  0.006525)
 27:   1021.48   0.000470    2.38  0.000144  ( 0.009404 -0.000099  0.007427)
 28:   1048.82   0.001103    5.58  0.000328  ( 0.011761  0.009704 -0.009788)
 29:   1073.12   0.017425   88.06  0.005067  (-0.022288  0.028034 -0.061519)
 30:   1105.35   0.003046   15.39  0.000860  (-0.004387  0.002289  0.028903)
 31:   1159.14   0.001022    5.16  0.000275  (-0.007707  0.011316 -0.009361)
 32:   1179.93   0.000011    0.06  0.000003  (-0.000341  0.001177 -0.001175)
 33:   1195.51   0.000054    0.27  0.000014  ( 0.002616  0.000787 -0.002568)
 34:   1232.28   0.002858   14.44  0.000724  (-0.016864 -0.016635  0.012757)
 35:   1308.09   0.000558    2.82  0.000133  (-0.003914 -0.010392  0.003146)
 36:   1344.14   0.000151    0.76  0.000035  ( 0.000188 -0.003464 -0.004797)
 37:   1363.76   0.000006    0.03  0.000001  ( 0.000726  0.000088  0.000904)
 38:   1397.27   0.003450   17.43  0.000770  ( 0.022483  0.016276  0.000182)
 39:   1484.17   0.001735    8.77  0.000365  (-0.009460  0.016588  0.000364)
 40:   1497.37   0.000899    4.54  0.000187  (-0.007853 -0.000647  0.011195)
 41:   1526.87   0.001996   10.09  0.000408  ( 0.011772  0.012379 -0.010775)
 42:   1618.66   0.001051    5.31  0.000203  ( 0.013789 -0.000530  0.003483)
 43:   1621.74   0.009432   47.66  0.001815  ( 0.010984  0.039673  0.010970)
 44:   1637.16   0.001644    8.31  0.000313  ( 0.013901  0.009362  0.005701)
 45:   3066.62   0.005977   30.21  0.000608  ( 0.005376  0.008139 -0.022652)
 46:   3117.86   0.001937    9.79  0.000194  ( 0.008955 -0.010647  0.000531)
 47:   3129.26   0.001433    7.24  0.000143  ( 0.011944  0.000080  0.000434)
 48:   3171.39   0.000727    3.67  0.000072  ( 0.002329  0.007055 -0.004041)
 49:   3180.93   0.000409    2.07  0.000040  (-0.003529 -0.004291  0.003043)
 50:   3189.20   0.002885   14.58  0.000282  (-0.008397  0.014134 -0.003473)
 51:   3199.27   0.001883    9.52  0.000184  ( 0.011739  0.005904 -0.003321)
 52:   3465.54   0.005462   27.60  0.000492  (-0.008587 -0.020002 -0.004242)
 53:   3528.73   0.010498   53.05  0.000928  ( 0.026723 -0.011843 -0.008600)

* The epsilon (eps) is given for a Dirac delta lineshape.
** The dipole moment derivative (T) already includes vibrational overlap.

The first frequency considered to be a vibration is 6
The total number of vibrations considered is 48


--------------------------
THERMOCHEMISTRY AT 298.15K
--------------------------

Temperature         ...   298.15 K
Pressure            ...     1.00 atm
Total Mass          ...   170.71 AMU
Quasi RRHO          ...     True
Cut-Off Frequency   ...     1.00 cm^-1

Throughout the following assumptions are being made:
  (1) The electronic state is orbitally nondegenerate
  (2) There are no thermally accessible electronically excited states
  (3) Hindered rotations indicated by low frequency modes are not
      treated as such but are treated as vibrations and this may
      cause some error
  (4) All equations used are the standard statistical mechanics
      equations for an ideal gas
  (5) All vibrations are strictly harmonic

freq.      31.60  E(vib)   ...       0.55 
freq.      63.77  E(vib)   ...       0.51 
freq.     105.71  E(vib)   ...       0.45 
freq.     151.38  E(vib)   ...       0.40 
freq.     299.59  E(vib)   ...       0.26 
freq.     349.82  E(vib)   ...       0.23 
freq.     412.51  E(vib)   ...       0.19 
freq.     423.14  E(vib)   ...       0.18 
freq.     509.95  E(vib)   ...       0.14 
freq.     536.10  E(vib)   ...       0.12 
freq.     629.90  E(vib)   ...       0.09 
freq.     635.85  E(vib)   ...       0.09 
freq.     725.78  E(vib)   ...       0.06 
freq.     775.17  E(vib)   ...       0.05 
freq.     818.35  E(vib)   ...       0.05 
freq.     859.44  E(vib)   ...       0.04 
freq.     928.35  E(vib)   ...       0.03 
freq.     936.94  E(vib)   ...       0.03 
freq.     978.62  E(vib)   ...       0.03 
freq.     987.68  E(vib)   ...       0.02 
freq.    1015.50  E(vib)   ...       0.02 
freq.    1021.48  E(vib)   ...       0.02 
freq.    1048.82  E(vib)   ...       0.02 
freq.    1073.12  E(vib)   ...       0.02 
freq.    1105.35  E(vib)   ...       0.02 
freq.    1159.14  E(vib)   ...       0.01 
freq.    1179.93  E(vib)   ...       0.01 
freq.    1195.51  E(vib)   ...       0.01 
freq.    1232.28  E(vib)   ...       0.01 
freq.    1308.09  E(vib)   ...       0.01 
freq.    1344.14  E(vib)   ...       0.01 
freq.    1363.76  E(vib)   ...       0.01 
freq.    1397.27  E(vib)   ...       0.00 
freq.    1484.17  E(vib)   ...       0.00 
freq.    1497.37  E(vib)   ...       0.00 
freq.    1526.87  E(vib)   ...       0.00 
freq.    1618.66  E(vib)   ...       0.00 
freq.    1621.74  E(vib)   ...       0.00 
freq.    1637.16  E(vib)   ...       0.00 
freq.    3066.62  E(vib)   ...       0.00 
freq.    3117.86  E(vib)   ...       0.00 
freq.    3129.26  E(vib)   ...       0.00 
freq.    3171.39  E(vib)   ...       0.00 
freq.    3180.93  E(vib)   ...       0.00 
freq.    3189.20  E(vib)   ...       0.00 
freq.    3199.27  E(vib)   ...       0.00 
freq.    3465.54  E(vib)   ...       0.00 
freq.    3528.73  E(vib)   ...       0.00 

------------
INNER ENERGY
------------

The inner energy is: U= E(el) + E(ZPE) + E(vib) + E(rot) + E(trans)
    E(el)   - is the total energy from the electronic structure calculation
              = E(kin-el) + E(nuc-el) + E(el-el) + E(nuc-nuc)
    E(ZPE)  - the the zero temperature vibrational energy from the frequency calculation
    E(vib)  - the the finite temperature correction to E(ZPE) due to population
              of excited vibrational states
    E(rot)  - is the rotational thermal energy
    E(trans)- is the translational thermal energy

Summary of contributions to the inner energy U:
Electronic energy                ...  -1967.19631369 Eh
Zero point energy                ...      0.14816923 Eh      92.98 kcal/mol
Thermal vibrational correction   ...      0.00589289 Eh       3.70 kcal/mol
Thermal rotational correction    ...      0.00141627 Eh       0.89 kcal/mol
Thermal translational correction ...      0.00141627 Eh       0.89 kcal/mol
-----------------------------------------------------------------------
Total thermal energy                  -1967.03941902 Eh


Summary of corrections to the electronic energy:
(perhaps to be used in another calculation)
Total thermal correction                  0.00872543 Eh       5.48 kcal/mol
Non-thermal (ZPE) correction              0.14816923 Eh      92.98 kcal/mol
-----------------------------------------------------------------------
Total correction                          0.15689467 Eh      98.45 kcal/mol


--------
ENTHALPY
--------

The enthalpy is H = U + kB*T
                kB is Boltzmann's constant
Total thermal energy              ...  -1967.03941902 Eh 
Thermal Enthalpy correction       ...      0.00094421 Eh       0.59 kcal/mol
-----------------------------------------------------------------------
Total Enthalpy                    ...  -1967.03847481 Eh


Note: Only C1 symmetry has been detected, increase convergence thresholds 
      if your molecule has a higher symmetry. Symmetry factor of 1.0 is   
      used for the rotational entropy correction. 
 

Note: Rotational entropy computed according to Herzberg 
Infrared and Raman Spectra, Chapter V,1, Van Nostrand Reinhold, 1945 
Point Group:  C1, Symmetry Number:   1  
Rotational constants in cm-1:     0.070656     0.032115     0.025936 

Vibrational entropy computed according to the QRRHO of S. Grimme
Chem.Eur.J. 2012 18 9955 using a reference frequency of 100.0 cm-1


-------
ENTROPY
-------

The entropy contributions are T*S = T*(S(el)+S(vib)+S(rot)+S(trans))
     S(el)   - electronic entropy
     S(vib)  - vibrational entropy
     S(rot)  - rotational entropy
     S(trans)- translational entropy
The entropies will be listed as multiplied by the temperature to get
units of energy

Electronic entropy                ...      0.00000000 Eh      0.00 kcal/mol
Vibrational entropy               ...      0.01025995 Eh      6.44 kcal/mol
Rotational entropy                ...      0.01410921 Eh      8.85 kcal/mol
Translational entropy             ...      0.01962863 Eh     12.32 kcal/mol
-----------------------------------------------------------------------
Final entropy term                ...      0.04399779 Eh     27.61 kcal/mol

In case the symmetry of your molecule has not been determined correctly
or in case you have a reason to use a different symmetry number we print 
out the resulting rotational entropy values for sn=1,12:

 non-linear molecules -----------------------------------
|  sn= 1 | S(rot)=       0.01410921 Eh      8.85 kcal/mol|
|  sn= 2 | S(rot)=       0.01345475 Eh      8.44 kcal/mol|
|  sn= 3 | S(rot)=       0.01307192 Eh      8.20 kcal/mol|
|  sn= 4 | S(rot)=       0.01280030 Eh      8.03 kcal/mol|
|  sn= 5 | S(rot)=       0.01258961 Eh      7.90 kcal/mol|
|  sn= 6 | S(rot)=       0.01241746 Eh      7.79 kcal/mol|
|  sn= 7 | S(rot)=       0.01227192 Eh      7.70 kcal/mol|
|  sn= 8 | S(rot)=       0.01214584 Eh      7.62 kcal/mol|
|  sn= 9 | S(rot)=       0.01203463 Eh      7.55 kcal/mol|
|  sn=10 | S(rot)=       0.01193515 Eh      7.49 kcal/mol|
|  sn=11 | S(rot)=       0.01184516 Eh      7.43 kcal/mol|
|  sn=12 | S(rot)=       0.01176301 Eh      7.38 kcal/mol|
 linear molecules ---------------------------------------
|  Dinfh | S(rot)=       0.00877407 Eh      5.51 kcal/mol|
|  Cinfv | S(rot)=       0.00942853 Eh      5.92 kcal/mol|
 --------------------------------------------------------


-------------------
GIBBS FREE ENERGY
-------------------

The Gibbs free energy is G = H - T*S

Total enthalpy                    ...  -1967.03847481 Eh 
Total entropy correction          ...     -0.04399779 Eh    -27.61 kcal/mol
-----------------------------------------------------------------------
Final Gibbs free energy         ...  -1967.08247260 Eh

For completeness - the Gibbs free energy minus the electronic energy
G-E(el)                           ...      0.11384109 Eh     71.44 kcal/mol


Maximum memory used throughout the entire PROP-calculation: 111.0 MB

--------------------------------
SUGGESTED CITATIONS FOR THIS RUN
--------------------------------

Below you find a list of papers that are relevant to this ORCA run
We neither can nor want to force you to cite these papers, but we appreciate if you do
You receive ORCA, which is the product of decades of hard work by many enthusiastic individuals, for free
The only thing we kindly ask in return is that you cite our papers,
We deeply appreciate it, if you show your appreciation for ORCA by not just citing the generic ORCA reference.

Please note that relegating all ORCA citations to the supporting information does *not* help us.
SI sections are not indexed - citations you put there will not count into any citation statistics
But we need these citations in order to attract the funding resources that allow us to do what we are doing

Therefore, if you are a happy ORCA user, please consider citing a few of the papers listed below in the main body of your paper

In addition to the list printed below, the program has created the file orca.bibtex that contains the list in bibtex format
You can import this file easily into all common literature databanks and citation aid programs


List of essential papers. We consider these as the minimum necessary citations

  1. Neese, F.
     Software update: the ORCA program system, version 6.0
     WIRES Comput. Molec. Sci. 2025 15(1), e70019
     doi.org/10.1002/wcms.7019

List of papers to cite with high priority. The work reported in these papers was absolutely
necessary for this run to complete.
Our perspective: the developers of density functionals and basis sets usually get cited in chemistry papers
Good! But without the algorithms to do something with them, the functionals or basis sets would not do anything.
Hence, in our opinion, the algorithm design and method developments papers are equally worthy of getting cited

  1. Neese, F.
     An improvement of the resolution of the identity approximation for the formation of the Coulomb matrix
     J. Comp. Chem. 2003 24(14), 1740-1747
     doi.org/10.1002/jcc.10318
  2. Neese, F.; Wennmohs, F.; Hansen, A.; Becker, U.
     Efficient, approximate and parallel Hartree-Fock and hybrid DFT calculations. A 'chain-of-spheres' algorithm for the Hartree-Fock exchange
     Chem. Phys. 2009 356(1-3), 98-109
     doi.org/10.1016/j.chemphys.2008.10.036
  3. Grimme, S.; Antony, J.; Ehrlich, S.; Krieg, H.
     A consistent and accurate ab initio parametrization of density functional dispersion correction (DFT-D) for the 94 elements H-Pu
     J. Chem. Phys. 2010 132 , 154104
     doi.org/10.1063/1.3382344
  4. Grimme, S.; Ehrlich, S.; Goerigk, L.
     Effect of the damping function in dispersion corrected density functional theory
     J. Comput. Chem. 2011 32(7), 1456-1465
     doi.org/10.1002/jcc.21759
  5. Bykov, D.; Petrenko, T.; Izsak, R.; Kossmann, S.; Becker, U.; Valeev, E.; Neese, F.
     Efficient implementation of the analytic second derivatives of Hartree-Fock and hybrid DFT energies: a detailed analysis of different approximations
     Molec. Phys. 2015 113 , 1961-1977
     doi.org/10.1080/00268976.2015.1025114
  6. Garcia-Rates, M.; Neese, F.
     Efficient implementation of the analytical second derivatives of hartree-fock and hybrid DFT energies within the framework of the conductor-like polarizable continuum model
     J. Comput. Chem. 2019 40 , 1816-1828
     doi.org/10.1002/jcc.25833
  7. Garcia-Rates, M.; Neese, F.
     Effect of the Solute Cavity on the Solvation Energy and its Derivatives within the Framework of the Gaussian Charge Scheme
     J. Comput. Chem. 2020 41 , 922-939
     doi.org/10.1002/jcc.26139
  8. Helmich-Paris, B.; de Souza, B.; Neese, F.; Izsák, R.
     An improved chain of spheres for exchange algorithm
     J. Chem. Phys. 2021 155(10), 104109
     doi.org/10.1063/5.0058766
  9. Neese, F.
     The SHARK Integral Generation and Digestion System
     J. Comp. Chem. 2022 44(3), 381
     doi.org/10.1002/jcc.26942

List of suggested additional citations. These are papers that are important in the 'surrounding' of 
of this run, or papers that preceded the highly important papers. If you like your results we are grateful for a citation.

  1. Izsak, R.; Neese, F.
     An overlap fitted chain of spheres exchange method
     J. Chem. Phys. 2011 135 , 144105
     doi.org/10.1063/1.3646921
  2. Izsak, R.; Hansen, A.; Neese, F.
     The resolution of identity and chain of spheres approximations for the LPNO-CCSD singles Fock term
     Molec. Phys. 2012 110 , 2413-2417
     doi.org/10.1080/00268976.2012.687466
  3. Neese, F.
     The ORCA program system
     WIRES Comput. Molec. Sci. 2012 2(1), 73-78
     doi.org/10.1002/wcms.81
  4. Izsak, R.; Neese, F.; Klopper, W.
     Robust fitting techniques in the chain of spheres approximation to the Fock exchange: The role of the complementary space
     J. Chem. Phys. 2013 139 , 
     doi.org/10.1063/1.4819264
  5. Neese, F.
     Software update: the ORCA program system, version 4.0
     WIRES Comput. Molec. Sci. 2018 8(1), 1-6
     doi.org/10.1002/wcms.1327
  6. Neese, F.; Wennmohs, F.; Becker, U.; Riplinger, C.
     The ORCA quantum chemistry program package
     J. Chem. Phys. 2020 152(22), 224108
     doi.org/10.1063/5.0004608
  7. Neese, F.
     Software update: The ORCA program system—Version 5.0
     WIRES Comput. Molec. Sci. 2022 12(1), e1606
     doi.org/10.1002/wcms.1606

List of optional additional citations

  1. Neese, F.
     Approximate second-order SCF convergence for spin unrestricted wavefunctions
     Chem. Phys. Lett. 2000 325(1-3), 93-98
     doi.org/10.1016/s0009-2614(00)00662-x

Timings for individual modules:

Sum of individual times          ...     1068.510 sec (=  17.809 min)
Startup calculation              ...      104.732 sec (=   1.746 min)   9.8 %
SCF iterations                   ...      518.160 sec (=   8.636 min)  48.5 %
Property integrals               ...       81.764 sec (=   1.363 min)   7.7 %
SCF Response                     ...       77.637 sec (=   1.294 min)   7.3 %
Property calculations            ...       84.049 sec (=   1.401 min)   7.9 %
SCF Gradient evaluation          ...      201.741 sec (=   3.362 min)  18.9 %
Geometry relaxation              ...        0.428 sec (=   0.007 min)   0.0 %
                             ****ORCA TERMINATED NORMALLY****
TOTAL RUN TIME: 0 days 0 hours 19 minutes 8 seconds 975 msec
