
                                 *****************
                                 * O   R   C   A *
                                 *****************

                                            #,                                       
                                            ###                                      
                                            ####                                     
                                            #####                                    
                                            ######                                   
                                           ########,                                 
                                     ,,################,,,,,                         
                               ,,#################################,,                 
                          ,,##########################################,,             
                       ,#########################################, ''#####,          
                    ,#############################################,,   '####,        
                  ,##################################################,,,,####,       
                ,###########''''           ''''###############################       
              ,#####''   ,,,,##########,,,,          '''####'''          '####       
            ,##' ,,,,###########################,,,                        '##       
           ' ,,###''''                  '''############,,,                           
         ,,##''                                '''############,,,,        ,,,,,,###''
      ,#''                                            '''#######################'''  
     '                                                          ''''####''''         
             ,#######,   #######,   ,#######,      ##                                
            ,#'     '#,  ##    ##  ,#'     '#,    #''#        ,####,    ,#,          
            ##       ##  ##   ,#'  ##            #'  '#       #'       ,# #          
            ##       ##  #######   ##           ,######,      #####,      #          
            '#,     ,#'  ##    ##  '#,     ,#' ,#      #,     #,   #      #          
             '#######'   ##     ##  '#######'  #'      '#     '####' #    #          



                #########################################################
                #                        -***-                          #
                #          Department of theory and spectroscopy        #
                #                                                       #
                #                      Frank Neese                      #
                #                                                       #
                #     Directorship, Architecture, Infrastructure        #
                #                    SHARK, DRIVERS                     #
                #        Core code/Algorithms in most modules           #
                #                                                       #
                #        Max Planck Institute fuer Kohlenforschung      #
                #                Kaiser Wilhelm Platz 1                 #
                #                 D-45470 Muelheim/Ruhr                 #
                #                      Germany                          #
                #                                                       #
                #                  All rights reserved                  #
                #                        -***-                          #
                #########################################################


                         Program Version 6.1.0-f.0  -   RELEASE   -


 With contributions from (in alphabetic order):
[Max-Planck-Institut fuer Kohlenforschung]                               
  Daniel Aravena         : Magnetic Suceptibility                        
  Michael Atanasov       : Ab Initio Ligand Field Theory (pilot matlab implementation)
  Alexander A. Auer      : GIAO ZORA, VPT2 properties, NMR spectrum      
  Ute Becker             : All parallelization in ORCA, NUMFREQ, NUMCALC 
  Giovanni Bistoni       : ED, misc. LED, open-shell LED, HFLD           
  Dmytro Bykov           : pre 5.0 version of the SCF Hessian            
  Marcos Casanova-Páez   : Triplet and SCS-CIS(D). UHF-(DLPNO)-IP/EA/STEOM-CCSD. UHF-CVS-IP/STEOM-CCSD   
  Vijay G. Chilkuri      : MRCI spin determinant printing, contributions to CSF-ICE 
  Pauline Colinet        : FMM embedding                                 
  Dipayan Datta          : RHF DLPNO-CCSD density                        
  Achintya Kumar Dutta   : EOM-CC, STEOM-CC                              
  Nicolas Foglia         : Exact transition moments, OPA infrastructure, MCD improvements    
  Dmitry Ganyushin       : Spin-Orbit,Spin-Spin,Magnetic field MRCI      
  Miquel Garcia-Rates    : C-PCM and meta-GGA Hessian, CCSD/C-PCM, Gaussian charge scheme 
  Tiago L. C. Gouveia    : GS-ROHF, GS-ROCIS                             
  Yang Guo               : DLPNO-NEVPT2, F12-NEVPT2, CIM, IAO-localization        
  Andreas Hansen         : Spin unrestricted coupled pair/coupled cluster methods 
  Ingolf Harden          : AUTO-CI MPn and infrastructure                
  Benjamin Helmich-Paris : MC-RPA, TRAH-(SCF,CASSCF), AVAS, COSX integrals, SCF dyn. polar., MC-PDFT, srDFT 
  Lee Huntington         : MR-EOM, pCC                                   
  Robert Izsak           : Overlap fitted RIJCOSX, COSX-SCS-MP3, EOM     
  Riya Kayal             : Wick's Theorem for AUTO-CI, AUTO-CI UHF-CCSDT 
  Emily Kempfer          : AUTO-CI RHF CISDT and CCSDT, approximate NEVPT4
  Christian Kollmar      : KDIIS, OOCD, Brueckner-CCSD(T), CCSD density, CASPT2, CASPT2-K, improved NEVPT2 
  Axel Koslowski         : Symmetry handling                             
  Simone Kossmann        : meta-GGA functionals, TD-DFT gradient, OOMP2, (MP2 Hessian; deprecated post 5.0) 
  Lucas Lang             : DCDCAS, Hyperfine gauge corrections, ICE-SOC+SSC
  Marvin Lechner         : AUTO-CI (C++ implementation), FIC-MRCC        
  Spencer Leger          : CASSCF response                               
  Dagmar Lenk            : GEPOL surface, SMD, ORCA-2-JSON               
  Dimitrios Liakos       : Extrapolation schemes; Compound Job, Property file
  Dimitrios Manganas     : Further ROCIS development; embedding schemes. LFT, Crystal Embedding 
  Dimitrios Pantazis     : SARC Basis sets                               
  Anastasios Papadopoulos: AUTO-CI, single reference methods and gradients 
  Taras Petrenko         : pre 6.0 DFT Hessian and TD-DFT gradient,  ECA, NRVS 
  Petra Pikulova         : Analytic Raman intensities                    
  Peter Pinski           : DLPNO-MP2, DLPNO-MP2 Gradient                 
  Shashank Vittal Rao    : ES-AILFT, MagRelax                            
  Christoph Reimann      : Effective Core Potentials                     
  Marius Retegan         : Local ZFS, SOC                                
  Christoph Riplinger    : Optimizer, TS searches, QM/MM, DLPNO-CCSD(T), (RO)-DLPNO pert. Triples 
  Michael Roemelt        : Original ROCIS implementation, recursive CI coupling coefficients
  Masaaki Saitow         : Open-shell DLPNO-CCSD energy and density      
  Barbara Sandhoefer     : DKH picture change effects                    
  Yorick L. A. Schmerwitz: GMF and freeze-and-release deltaSCF, NEB S-IDPP initial path                    
  Kantharuban Sivalingam : CASSCF convergence/infrastructure, NEVPT2, NEVPT3, NEVPT4(SD), FIC-MRCI and CEPA variants
  Bernardo de Souza      : ESD, SOC TD-DFT                               
  Georgi L. Stoychev     : AutoAux, RI-MP2 NMR, DLPNO-MP2 response, X2C  
  Van Anh Tran           : RI-MP2 g-tensors                              
  Willem Van den Heuvel  : Paramagnetic NMR                              
  Zikuan Wang            : NOTCH, Electric field optimization            
  Frank Wennmohs         : Technical directorship and infrastructure     
  Hang Xu                : AUTO-CI-Response properties                   
                                                                         
[FACCTs GmbH]                                                            
  Markus Bursch, Nicolas Foglia, Miquel Garcia-Rates, Ingolf Harden, Hagen Neugebauer, Anastasios Papadopoulos, 
  Christoph Riplinger, Bernardo de Souza, Georgi L. Stoychev                                                    
                                                                 
  APM, various basis sets, CI-OPT, improved COSX, DLPNO-Multilevel,           
  DOCKER, DRACO, updates on ESD, Fragmentator, GOAT, IRC, LR-CPCM, L-BFGS, MBIS, meta-GGA TD-DFT gradient, ML-optimized integration grids, 
  MM, NACMEs, nearIR, NEB, NEB-TS, NL-DFT gradient (VV10), 2- and 3-layer-ONIOM, interface openCOSMO-RS, QMMM,   
  Crystal-QMMM, RESP, rigid body optimization, SF, symmetry and pop. for TD-DFT, various functionals, SOLVATOR                                   
                                                                         
[Other institutions]                                                     
  V. Asgeirsson          : NEB                                           
  Christoph Bannwarth    : sTDA-DFT, sTD-DFT, PBEh-3c, B97-3c, D3        
  Giovanni Bistoni       : ETS/NOCV, ADLD/ADEX, COVALED                  
  Martin Brehm           : Molecular dynamics                            
  Ronald Cardenas        : ETS/NOCV                                      
  Martina Colucci        : COVALED                                       
  Sebastian Ehlert       : rSCAN, r2SCAN, r2SCAN-3c, D4, dhf basis sets  
  Marvin Friede          : D4 for Fr, Ra, Ac-Lr                          
  Lars Goerigk           : TD-DFT with DH, B97 family of functionals     
  Stefan Grimme          : VdW corrections, initial TS optimization, DFT functionals, gCP, sTDA/sTD-DF 
  Waldemar Hujo          : DFT-NL                                        
  H. Jonsson             : NEB                                           
  Holger Kruse           : gCP                                           
  Marcel Mueller         : wB97X-3c, vDZP basis set                      
  Hagen Neugebauer       : wr2SCAN, Native XTB                           
  Gianluca Regni         : ADLD/ADEX                                     
  Tobias Risthaus        : pre 6.0 range-separated hybrid DFT and stability analysis
  Lukas Wittmann         : regularized MP2, r2SCAN double-hybrids, wr2SCAN        
                                                                         
We gratefully acknowledge several colleagues who have allowed us to      
interface, adapt or use parts of their codes:                            
  Ed Valeev, F. Pavosevic, A. Kumar             : LibInt (2-el integral package), F12 methods 
  Garnet Chan, S. Sharma, J. Yang, R. Olivares  : DMRG                   
  Ulf Ekstrom                                   : XCFun DFT Library      
  Mihaly Kallay                                 : mrcc  (arbitrary order and MRCC methods)
  Frank Weinhold                                : gennbo (NPA and NBO analysis)           
  Simon Mueller                                 : openCOSMO-RS                            
  Christopher J. Cramer and Donald G. Truhlar   : smd solvation model                     
  S Lehtola, MJT Oliveira, MAL Marques          : LibXC Library                           
  Liviu Ungur et al                             : ANISO software                          


 Your calculation uses the libint2 library for the computation of 2-el integrals
 For citations please refer to: http://libint.valeyev.net

 Your ORCA version has been built with support for libXC version: 7.0.0
 For citations please refer to: https://libxc.gitlab.io

 This ORCA versions uses:
   CBLAS   interface :  Fast vector & matrix operations
   LAPACKE interface :  Fast linear algebra routines
   SCALAPACK package :  Parallel linear algebra routines
   Shared memory     :  Shared parallel matrices
   BLAS/LAPACK       :  OpenBLAS 0.3.29  USE64BITINT DYNAMIC_ARCH NO_AFFINITY Cooperlake SINGLE_THREADED
        Core in use  :  Cooperlake
   Copyright (c) 2011-2014, The OpenBLAS Project


  ***********************************
  * Starting time: Sun Oct 12 07:43:54 2025
  * Host name:     g07.hpc.nesi.org.nz
  * Process ID:    49088
  * Working dir.:  /nesi/nobackup/nesi99999/geoffreyweal/ORCA_tutorial/Step1_Geo_Opt/Products
  ***********************************

NOTE: MaxCore=2000 MB was set to SCF,MP2,MDCI,CIPSI,MRCI,RASCI and CIS
      => If you want to overwrite this, your respective input block should be placed after the MaxCore statement


***************************************
The coordinates will be read from file: product.xyz
***************************************


Your calculation utilizes the atom-pairwise dispersion correction
with the Becke-Johnson damping scheme (D3BJ)


Warning: RI is on but no J-basis has been assigned. Assigning Def2/J (nothing to worry about!)
================================================================================

----- Orbital basis set information -----
Your calculation utilizes the basis: def2-TZVP
   F. Weigend and R. Ahlrichs, Phys. Chem. Chem. Phys. 7, 3297 (2005).

----- AuxJ basis set information -----
Your calculation utilizes the auxiliary basis: def2/J
   H-Rn: F. Weigend, Phys. Chem. Chem. Phys. 8, 1057 (2006).
   Fr-Lr: K. Eichkorn, F. Weigend, O. Treutler, R. Ahlrichs; Theor. Chem. Acc. 97, 119 (1997).

================================================================================
                                        WARNINGS
                       Please study these warnings very carefully!
================================================================================


WARNING: Geometry Optimization
  ===> : Switching off AutoStart
         For restart on a previous wavefunction, please use MOREAD

================================================================================
                                       INPUT FILE
================================================================================
NAME = orca.inp
|  1> !B3LYP DEF2-TZVP D3BJ 
|  2> !OPT FREQ TightOPT TightSCF defgrid2
|  3> %SCF
|  4>     MaxIter 2000       # Here setting MaxIter to a very high number. Intended for systems that require sometimes 1000 iterations before converging (very rare).
|  5>     DIISMaxEq 5        # Default value is 5. A value of 15-40 necessary for difficult systems.
|  6>     directresetfreq 15 # Default value is 15. A value of 1 (very expensive) is sometimes required. A value between 1 and 15 may be more cost-effective.
|  7> END
|  8> %CPCM EPSILON 6.02 REFRAC 1.3723 END
|  9> %PAL NPROCS 32 END
| 10> %maxcore 2000 # This indicates you want ORCA to use only 2GB per core maximum, so ORCA will use only 2GB*32=64GB of memory in total.
| 11> * xyzfile 1 1 product.xyz 
| 12> 
| 13>                          ****END OF INPUT****
================================================================================

                       *****************************
                       * Geometry Optimization Run *
                       *****************************

Geometry optimization settings:
Update method            Update   .... BFGS
Choice of coordinates    CoordSys .... (2022) Redundant Internals
Initial Hessian          InHess   .... Almloef's Model
Max. no of cycles        MaxIter  .... 54

Convergence Tolerances:
Energy Change            TolE     ....  1.0000e-06 Eh
Max. Gradient            TolMAXG  ....  1.0000e-04 Eh/bohr
RMS Gradient             TolRMSG  ....  3.0000e-05 Eh/bohr
Max. Displacement        TolMAXD  ....  1.0000e-03 bohr
RMS Displacement         TolRMSD  ....  6.0000e-04 bohr
Strict Convergence                .... False

------------------------------------------------------------------------------
                        ORCA OPTIMIZATION COORDINATE SETUP
------------------------------------------------------------------------------

The optimization will be done in redundant internal coordinates (2022)
Making redundant internal coordinates   ...  (2022 redundants) done
Evaluating the initial hessian          ...  (Almloef) done
Evaluating the coordinates              ...  done
Calculating the B-matrix                .... done
Calculating the G-matrix                .... done
The number of degrees of freedom        ....   83

    -----------------------------------------------------------------
                    Redundant Internal Coordinates


    -----------------------------------------------------------------
         Definition                    Initial Value    Approx d2E/dq
    -----------------------------------------------------------------
      1. B(C   1,C   0)                  1.3981         0.606516   
      2. B(C   2,C   1)                  1.4045         0.592440   
      3. B(C   3,C   2)                  1.4108         0.578845   
      4. B(C   4,C   3)                  1.3988         0.605010   
      5. B(C   5,C   4)                  1.3965         0.609950   
      6. B(C   5,C   0)                  1.3964         0.610349   
      7. B(H   6,C   0)                  1.0824         0.370336   
      8. B(H   7,C   5)                  1.0824         0.370319   
      9. B(H   8,C   1)                  1.0831         0.369306   
     10. B(H   9,C   3)                  1.0815         0.371586   
     11. B(H  10,C   4)                  1.0825         0.370193   
     12. B(C  11,C   2)                  1.5115         0.399889   
     13. B(N  12,C  11)                  1.4594         0.433699   
     14. B(H  13,N  12)                  1.0462         0.378804   
     15. B(H  14,N  12)                  1.0449         0.380635   
     16. B(H  15,C  11)                  1.1129         0.331052   
     17. B(Cu 17,H  16)                  1.6555         0.456432   
     18. B(Cu 17,C  11)                  2.0521         0.555266   
     19. A(C   5,C   0,H   6)          119.9435         0.353647   
     20. A(C   1,C   0,C   5)          120.0883         0.431136   
     21. A(C   1,C   0,H   6)          119.9682         0.353270   
     22. A(C   0,C   1,C   2)          120.5830         0.428838   
     23. A(C   0,C   1,H   8)          119.0964         0.353103   
     24. A(C   2,C   1,H   8)          120.3205         0.351703   
     25. A(C   1,C   2,C   3)          118.8793         0.425265   
     26. A(C   3,C   2,C  11)          123.1002         0.396641   
     27. A(C   1,C   2,C  11)          118.0199         0.398262   
     28. A(C   4,C   3,H   9)          118.2635         0.353323   
     29. A(C   2,C   3,H   9)          121.4403         0.350691   
     30. A(C   2,C   3,C   4)          120.2961         0.426866   
     31. A(C   3,C   4,H  10)          119.9374         0.353098   
     32. A(C   3,C   4,C   5)          120.1873         0.430893   
     33. A(C   5,C   4,H  10)          119.8752         0.353585   
     34. A(C   0,C   5,C   4)          119.9659         0.431573   
     35. A(C   4,C   5,H   7)          120.0217         0.353605   
     36. A(C   0,C   5,H   7)          120.0124         0.353644   
     37. A(N  12,C  11,Cu 17)          108.5590         0.444550   
     38. A(C   2,C  11,Cu 17)          108.1232         0.440974   
     39. A(N  12,C  11,H  15)          109.3422         0.325848   
     40. A(C   2,C  11,H  15)          109.4648         0.323466   
     41. A(H  15,C  11,Cu 17)          108.1613         0.380677   
     42. A(C   2,C  11,N  12)          113.0663         0.374811   
     43. A(H  13,N  12,H  14)          107.5624         0.290955   
     44. A(C  11,N  12,H  14)          107.8808         0.330601   
     45. A(C  11,N  12,H  13)          109.0263         0.330337   
     46. A(C  11,Cu 17,H  16)          109.4089         0.468904   
     47. D(H   8,C   1,C   0,C   5)    179.9918         0.025390   
     48. D(C   2,C   1,C   0,H   6)    179.9950         0.025390   
     49. D(H   8,C   1,C   0,H   6)      0.0065         0.025390   
     50. D(C   2,C   1,C   0,C   5)     -0.0196         0.025390   
     51. D(C  11,C   2,C   1,C   0)    179.8325         0.024164   
     52. D(C   3,C   2,C   1,C   0)      0.1037         0.024164   
     53. D(C   3,C   2,C   1,H   8)   -179.9079         0.024164   
     54. D(C  11,C   2,C   1,H   8)     -0.1791         0.024164   
     55. D(H   9,C   3,C   2,C  11)      0.0664         0.023016   
     56. D(H   9,C   3,C   2,C   1)    179.7806         0.023016   
     57. D(C   4,C   3,C   2,C  11)   -179.8446         0.023016   
     58. D(C   4,C   3,C   2,C   1)     -0.1304         0.023016   
     59. D(H  10,C   4,C   3,C   2)   -179.9774         0.025257   
     60. D(C   5,C   4,C   3,H   9)   -179.8404         0.025257   
     61. D(C   5,C   4,C   3,C   2)      0.0734         0.025257   
     62. D(H  10,C   4,C   3,H   9)      0.1088         0.025257   
     63. D(H   7,C   5,C   4,H  10)      0.0158         0.025694   
     64. D(C   0,C   5,C   4,H  10)   -179.9368         0.025694   
     65. D(C   0,C   5,C   4,C   3)      0.0125         0.025694   
     66. D(H   7,C   5,C   0,H   6)     -0.0067         0.025730   
     67. D(H   7,C   5,C   0,C   1)   -179.9921         0.025730   
     68. D(H   7,C   5,C   4,C   3)    179.9650         0.025694   
     69. D(C   4,C   5,C   0,H   6)    179.9459         0.025730   
     70. D(C   4,C   5,C   0,C   1)     -0.0395         0.025730   
     71. D(Cu 17,C  11,C   2,C   1)    -59.2282         0.011868   
     72. D(H  15,C  11,C   2,C   3)   -121.8972         0.011868   
     73. D(H  15,C  11,C   2,C   1)     58.3863         0.011868   
     74. D(N  12,C  11,C   2,C   3)      0.2649         0.011868   
     75. D(N  12,C  11,C   2,C   1)   -179.4517         0.011868   
     76. D(H  13,N  12,C  11,H  15)     53.5027         0.016037   
     77. D(H  13,N  12,C  11,C   2)    -68.7279         0.016037   
     78. D(H  14,N  12,C  11,H  15)    -63.0253         0.016037   
     79. D(H  14,N  12,C  11,C   2)    174.7441         0.016037   
     80. D(H  13,N  12,C  11,Cu 17)    171.2978         0.016037   
     81. D(H  16,Cu 17,C  11,H  15)    -38.6912         0.010000   
     82. D(H  16,Cu 17,C  11,N  12)   -157.2350         0.010000   
     83. D(H  16,Cu 17,C  11,C   2)     79.7574         0.010000   
    -----------------------------------------------------------------

Number of atoms                         .... 18
Number of degrees of freedom            .... 83


         *************************************************************
         *                GEOMETRY OPTIMIZATION CYCLE   1            *
         *************************************************************
---------------------------------
CARTESIAN COORDINATES (ANGSTROEM)
---------------------------------
  C     -2.781600    1.622250    1.415630
  C     -1.618540    2.388350    1.293080
  C     -0.565840    2.241090    2.211060
  C     -0.700740    1.305210    3.258090
  C     -1.866820    0.541780    3.376250
  C     -2.905890    0.699930    2.456650
  H     -3.586780    1.743900    0.702600
  H     -3.806810    0.107370    2.550290
  H     -1.539150    3.098870    0.479430
  H      0.085210    1.155620    3.985720
  H     -1.964310   -0.174370    4.182090
  C      0.666250    3.095850    2.021630
  N      1.695080    2.846550    3.026190
  H      1.356820    3.192240    3.953900
  H      2.537750    3.408140    2.768610
  H      0.379300    4.170820    2.046800
  H      0.589600    3.504910   -0.984430
  Cu     1.448930    2.685950    0.169450

----------------------------
CARTESIAN COORDINATES (A.U.)
----------------------------
  NO LB      ZA    FRAG     MASS         X           Y           Z
   0 C     6.0000    0    12.011   -5.256462    3.065608    2.675153
   1 C     6.0000    0    12.011   -3.058597    4.513327    2.443567
   2 C     6.0000    0    12.011   -1.069283    4.235046    4.178298
   3 C     6.0000    0    12.011   -1.324207    2.466489    6.156898
   4 C     6.0000    0    12.011   -3.527779    1.023816    6.380188
   5 C     6.0000    0    12.011   -5.491336    1.322676    4.642396
   6 H     1.0000    0     1.008   -6.778032    3.295493    1.327722
   7 H     1.0000    0     1.008   -7.193828    0.202900    4.819350
   8 H     1.0000    0     1.008   -2.908572    5.856016    0.905991
   9 H     1.0000    0     1.008    0.161024    2.183805    7.531919
  10 H     1.0000    0     1.008   -3.712008   -0.329512    7.903005
  11 C     6.0000    0    12.011    1.259030    5.850309    3.820327
  12 N     7.0000    0    14.007    3.203237    5.379200    5.718670
  13 H     1.0000    0     1.008    2.564018    6.032459    7.471788
  14 H     1.0000    0     1.008    4.795652    6.440451    5.231915
  15 H     1.0000    0     1.008    0.716773    7.881708    3.867891
  16 H     1.0000    0     1.008    1.114183    6.623320   -1.860303
  17 Cu   29.0000    0    63.550    2.738081    5.075710    0.320214

--------------------------------
INTERNAL COORDINATES (ANGSTROEM)
--------------------------------
 C      0   0   0     0.000000000000     0.00000000     0.00000000
 C      1   0   0     1.398083071960     0.00000000     0.00000000
 C      2   1   0     1.404475018646   120.58302002     0.00000000
 C      3   2   1     1.410794529795   118.87929027     0.10367133
 C      4   3   2     1.398760064092   120.29609771   359.86960815
 C      1   2   3     1.396368442389   120.08827070     0.00000000
 H      1   2   3     1.082370239705   119.96822062   179.99504593
 H      6   1   2     1.082382857218   120.01242223   180.00794146
 H      2   1   3     1.083128692723   119.09644730   180.01141483
 H      4   3   2     1.081452720881   121.44029779   179.78060160
 H      5   4   3     1.082475509284   119.93744126   180.02259809
 C      3   2   1     1.511470856682   118.01990726   179.83246995
 N     12   3   2     1.459377419484   113.06628521   180.54834572
 H     13  12   3     1.046215679389   109.02630292   291.27206507
 H     13  12   3     1.044903590481   107.88082901   174.74410670
 H     12   3   2     1.112894573758   109.46481189    58.38630796
 H      9   2   1     2.615211491199   125.59111940   221.97268357
 Cu    17   9   2     1.655470502576    87.45357552   344.86495126

---------------------------
INTERNAL COORDINATES (A.U.)
---------------------------
 C      0   0   0     0.000000000000     0.00000000     0.00000000
 C      1   0   0     2.641994118475     0.00000000     0.00000000
 C      2   1   0     2.654073147174   120.58302002     0.00000000
 C      3   2   1     2.666015292547   118.87929027     0.10367133
 C      4   3   2     2.643273448201   120.29609771   359.86960815
 C      1   2   3     2.638753938165   120.08827070     0.00000000
 H      1   2   3     2.045383328550   119.96822062   179.99504593
 H      6   1   2     2.045407172194   120.01242223   180.00794146
 H      2   1   3     2.046816597039   119.09644730   180.01141483
 H      4   3   2     2.043649469248   121.44029779   179.78060160
 H      5   4   3     2.045582259224   119.93744126   180.02259809
 C      3   2   1     2.856265978533   118.01990726   179.83246995
 N     12   3   2     2.757823648854   113.06628521   180.54834572
 H     13  12   3     1.977061111060   109.02630292   291.27206507
 H     13  12   3     1.974581622360   107.88082901   174.74410670
 H     12   3   2     2.103065960330   109.46481189    58.38630796
 H      9   2   1     4.942033500650   125.59111940   221.97268357
 Cu    17   9   2     3.128385872654    87.45357552   344.86495126

---------------------
BASIS SET INFORMATION
---------------------
There are 4 groups of distinct atoms

 Group   1 Type C   : 11s6p2d1f contracted to 5s3p2d1f pattern {62111/411/11/1}
 Group   2 Type H   : 5s1p contracted to 3s1p pattern {311/1}
 Group   3 Type N   : 11s6p2d1f contracted to 5s3p2d1f pattern {62111/411/11/1}
 Group   4 Type Cu  : 17s11p7d1f contracted to 6s4p4d1f pattern {842111/6311/4111/1}

Atom   0C    basis set group =>   1
Atom   1C    basis set group =>   1
Atom   2C    basis set group =>   1
Atom   3C    basis set group =>   1
Atom   4C    basis set group =>   1
Atom   5C    basis set group =>   1
Atom   6H    basis set group =>   2
Atom   7H    basis set group =>   2
Atom   8H    basis set group =>   2
Atom   9H    basis set group =>   2
Atom  10H    basis set group =>   2
Atom  11C    basis set group =>   1
Atom  12N    basis set group =>   3
Atom  13H    basis set group =>   2
Atom  14H    basis set group =>   2
Atom  15H    basis set group =>   2
Atom  16H    basis set group =>   2
Atom  17Cu   basis set group =>   4
---------------------------------
AUXILIARY/J BASIS SET INFORMATION
---------------------------------
There are 4 groups of distinct atoms

 Group   1 Type C   : 12s5p4d2f1g contracted to 6s4p3d1f1g pattern {711111/2111/211/2/1}
 Group   2 Type H   : 5s2p1d contracted to 3s1p1d pattern {311/2/1}
 Group   3 Type N   : 12s5p4d2f1g contracted to 6s4p3d1f1g pattern {711111/2111/211/2/1}
 Group   4 Type Cu  : 19s5p5d3f3g contracted to 8s5p4d3f3g pattern {121111111/11111/2111/111/111}

Atom   0C    basis set group =>   1
Atom   1C    basis set group =>   1
Atom   2C    basis set group =>   1
Atom   3C    basis set group =>   1
Atom   4C    basis set group =>   1
Atom   5C    basis set group =>   1
Atom   6H    basis set group =>   2
Atom   7H    basis set group =>   2
Atom   8H    basis set group =>   2
Atom   9H    basis set group =>   2
Atom  10H    basis set group =>   2
Atom  11C    basis set group =>   1
Atom  12N    basis set group =>   3
Atom  13H    basis set group =>   2
Atom  14H    basis set group =>   2
Atom  15H    basis set group =>   2
Atom  16H    basis set group =>   2
Atom  17Cu   basis set group =>   4


           ************************************************************
           *        Program running with 32 parallel MPI-processes    *
           *              working on a common directory               *
           ************************************************************
------------------------------------------------------------------------------
                             ORCA STARTUP CALCULATIONS
                           -- RI-GTO INTEGRALS CHOSEN --
------------------------------------------------------------------------------
------------------------------------------------------------------------------
                   ___                                                        
                  /   \      - P O W E R E D   B Y -                         
                 /     \                                                     
                 |  |  |   _    _      __       _____    __    __             
                 |  |  |  | |  | |    /  \     |  _  \  |  |  /  |          
                  \  \/   | |  | |   /    \    | | | |  |  | /  /          
                 / \  \   | |__| |  /  /\  \   | |_| |  |  |/  /          
                |  |  |   |  __  | /  /__\  \  |    /   |      \           
                |  |  |   | |  | | |   __   |  |    \   |  |\   \          
                \     /   | |  | | |  |  |  |  | |\  \  |  | \   \       
                 \___/    |_|  |_| |__|  |__|  |_| \__\ |__|  \__/        
                                                                              
                      - O R C A' S   B I G   F R I E N D -                    
                                      &                                       
                       - I N T E G R A L  F E E D E R -                       
                                                                              
 v1 FN, 2020, v2 2021, v3 2022-2024                                           
------------------------------------------------------------------------------


----------------------
SHARK INTEGRAL PACKAGE
----------------------

Number of atoms                             ...     18
Number of basis functions                   ...    347
Number of shells                            ...    139
Maximum angular momentum                    ...      3
Integral batch strategy                     ... SHARK/LIBINT Hybrid
RI-J (if used) integral strategy            ... SPLIT-RIJ (Revised 2003 algorithm where possible)
Printlevel                                  ...      1
Contraction scheme used                     ... SEGMENTED contraction
Prescreening option                         ... SCHWARTZ
   Thresh                                   ... 2.500e-11
   Tcut                                     ... 2.500e-12
   Tpresel                                  ... 2.500e-12 
Coulomb Range Separation                    ... NOT USED
Exchange Range Separation                   ... NOT USED
Multipole approximations                    ... NOT USED
Finite Nucleus Model                        ... NOT USED
CABS basis                                  ... NOT available
Auxiliary Coulomb fitting basis             ... AVAILABLE
   # of basis functions in Aux-J            ...    582
   # of shells in Aux-J                     ...    188
   Maximum angular momentum in Aux-J        ...      4
Auxiliary J/K fitting basis                 ... NOT available
Auxiliary Correlation fitting basis         ... NOT available
Auxiliary 'external' fitting basis          ... NOT available

Checking pre-screening integrals            ... done (  0.0 sec) Dimension = 139
   => SHARK Basis and OBASIS are compatible. Storing Pre-screening
Shell pair information
Shell pair cut-off parameter TPreSel        ...   2.5e-12
Total number of shell pairs                 ...      9730
Shell pairs after pre-screening             ...      8571
Total number of primitive shell pairs       ...     31637
Primitive shell pairs kept                  ...     20063
          la=0 lb=0:   2290 shell pairs
          la=1 lb=0:   2375 shell pairs
          la=1 lb=1:    641 shell pairs
          la=2 lb=0:   1313 shell pairs
          la=2 lb=1:    683 shell pairs
          la=2 lb=2:    198 shell pairs
          la=3 lb=0:    566 shell pairs
          la=3 lb=1:    300 shell pairs
          la=3 lb=2:    165 shell pairs
          la=3 lb=3:     40 shell pairs

Checking whether 4 symmetric matrices of dimension 347 fit in memory
:Max Core in MB      =   2000.00
 MB in use           =     14.28
 MB left             =   1985.72
 MB needed           =      1.84
 Data fit in memory  = YES
Calculating RI/J V-Matrix + Cholesky decomp.... done (  0.2 sec)
Calculating Nuclear repulsion               ... done (  0.0 sec) ENN=    597.223914072429 Eh

Diagonalization of the overlap matrix:
Smallest eigenvalue                        ... 9.021e-06
Time for diagonalization                   ...    0.013 sec
Threshold for overlap eigenvalues          ... 1.000e-07
Number of eigenvalues below threshold      ... 0
Time for construction of square roots      ...    0.012 sec
Total time needed                          ...    0.657 sec

-------------------
DFT GRID GENERATION
-------------------

General Integration Accuracy     IntAcc      ... 4.388
Radial Grid Type                 RadialGrid  ... OptM3 with GC (2021)
Angular Grid (max. ang.)         AngularGrid ... 4 (Lebedev-302)
Angular grid pruning method      GridPruning ... 4 (adaptive)
Weight generation scheme         WeightScheme... mBecke (2022)
Basis function cutoff            BFCut       ... 1.0000e-11
Integration weight cutoff        WCut        ... 1.0000e-14
Partially contracted basis set               ... off
Rotationally invariant grid construction     ... off
Angular grids for H and He will be reduced by one unit
Core-polarized basis detected: some atoms will have their core
                               angular grid increased.

Total number of grid points                  ...    88222
Total number of batches                      ...     1388
Average number of points per batch           ...       63
Average number of grid points per atom       ...     4901

--------------------
COSX GRID GENERATION
--------------------

GRIDX 1
-------
General Integration Accuracy     IntAcc      ... 3.816
Radial Grid Type                 RadialGrid  ... OptM3 with GC (2021)
Angular Grid (max. ang.)         AngularGrid ... 1 (Lebedev-50)
Angular grid pruning method      GridPruning ... 4 (adaptive)
Weight generation scheme         WeightScheme... mBecke (2022)
Basis function cutoff            BFCut       ... 1.0000e-11
Integration weight cutoff        WCut        ... 1.0000e-14
Partially contracted basis set               ... on
Rotationally invariant grid construction     ... off
Angular grids for H and He will be reduced by one unit
Core-polarized basis detected: some atoms will have their core
                               angular grid increased.

Total number of grid points                  ...    15763
Total number of batches                      ...      131
Average number of points per batch           ...      120
Average number of grid points per atom       ...      876
UseSFitting                                  ... on

GRIDX 2
-------
General Integration Accuracy     IntAcc      ... 4.020
Radial Grid Type                 RadialGrid  ... OptM3 with GC (2021)
Angular Grid (max. ang.)         AngularGrid ... 2 (Lebedev-110)
Angular grid pruning method      GridPruning ... 4 (adaptive)
Weight generation scheme         WeightScheme... mBecke (2022)
Basis function cutoff            BFCut       ... 1.0000e-11
Integration weight cutoff        WCut        ... 1.0000e-14
Partially contracted basis set               ... on
Rotationally invariant grid construction     ... off
Angular grids for H and He will be reduced by one unit
Core-polarized basis detected: some atoms will have their core
                               angular grid increased.

Total number of grid points                  ...    27093
Total number of batches                      ...      221
Average number of points per batch           ...      122
Average number of grid points per atom       ...     1505
UseSFitting                                  ... on

GRIDX 3
-------
General Integration Accuracy     IntAcc      ... 4.338
Radial Grid Type                 RadialGrid  ... OptM3 with GC (2021)
Angular Grid (max. ang.)         AngularGrid ... 3 (Lebedev-194)
Angular grid pruning method      GridPruning ... 4 (adaptive)
Weight generation scheme         WeightScheme... mBecke (2022)
Basis function cutoff            BFCut       ... 1.0000e-11
Integration weight cutoff        WCut        ... 1.0000e-14
Partially contracted basis set               ... on
Rotationally invariant grid construction     ... off
Angular grids for H and He will be reduced by one unit
Core-polarized basis detected: some atoms will have their core
                               angular grid increased.

Total number of grid points                  ...    52388
Total number of batches                      ...      420
Average number of points per batch           ...      124
Average number of grid points per atom       ...     2910
UseSFitting                                  ... on
Grids setup in   1.6 sec
Initializing property integral containers    ... done (  0.0 sec)

SHARK setup successfully completed in   3.3 seconds

Maximum memory used throughout the entire STARTUP-calculation: 33.4 MB


           ************************************************************
           *        Program running with 32 parallel MPI-processes    *
           *              working on a common directory               *
           ************************************************************
-------------------------------------------------------------------------------
                                 ORCA GUESS
                   Start orbitals & Density for SCF / CASSCF
-------------------------------------------------------------------------------

------------
SCF SETTINGS
------------
Hamiltonian:
 Density Functional     Method          .... DFT(GTOs)
 Exchange Functional    Exchange        .... B88
   X-Alpha parameter    XAlpha          ....  0.666667
   Becke's b parameter  XBeta           ....  0.004200
 Correlation Functional Correlation     .... LYP
 LDA part of GGA corr.  LDAOpt          .... VWN-5
 Gradients option       PostSCFGGA      .... off
 Hybrid DFT is turned on
   Fraction HF Exchange ScalHFX         ....  0.200000
   Scaling of DF-GGA-X  ScalDFX         ....  0.720000
   Scaling of DF-GGA-C  ScalDFC         ....  0.810000
   Scaling of DF-LDA-C  ScalLDAC        ....  1.000000
   Perturbative correction              ....  0.000000
   NL short-range parameter             ....  4.800000
 RI-approximation to the Coulomb term is turned on
   Number of AuxJ basis functions       .... 582
   RIJ-COSX (HFX calculated with COS-X)).... on


General Settings:
 Integral files         IntName         .... orca
 Hartree-Fock type      HFTyp           .... RHF
 Total Charge           Charge          ....    1
 Multiplicity           Mult            ....    1
 Number of Electrons    NEL             ....   86
 Basis Dimension        Dim             ....  347
 Nuclear Repulsion      ENuc            ....    597.2239140724 Eh

Convergence Acceleration:
 AO-DIIS                CNVDIIS         .... on
   Start iteration      DIISMaxIt       ....    12
   Startup error        DIISStart       ....  0.200000
   # of expansion vecs  DIISMaxEq       ....     5
   Bias factor          DIISBfac        ....   1.050
   Max. coefficient     DIISMaxC        ....  10.000
 MO-DIIS                CNVKDIIS        .... off
 Trust-Rad. Augm. Hess. CNVTRAH         .... auto
   Auto Start mean grad. ratio tolernc. ....  1.125000
   Auto Start start iteration           ....    50
   Auto Start num. interpolation iter.  ....    10
   Max. Number of Micro iterations      ....    24
   Max. Number of Macro iterations      .... Maxiter - #DIIS iter
   Number of Davidson start vectors     ....     2
   Converg. threshold    (grad. norm)   ....   1.000e-05
   Grad. Scal. Fac. for Micro threshold ....   0.100
   Minimum threshold for Micro iter.    ....   1.000e-02
   NR start threshold (gradient norm)   ....   1.000e-04
   Initial trust radius                 ....   0.400
   Minimum AH scaling param. (alpha)    ....   1.000
   Maximum AH scaling param. (alpha)    .... 1000.000
   Quad. conv. algorithm                .... NR
   White noise on init. David. guess    .... on
   Maximum white noise                  ....   0.010
   Pseudo random numbers                .... off
   Inactive MOs                         .... canonical
   Orbital update algorithm             .... Taylor
   Preconditioner                       .... Diag
   Full preconditioner red. dimension   ....   250
 SOSCF                 CNVSOSCF           .... on
   Start iteration     SOSCFMaxIt         ....   150
   Startup grad/error  SOSCFStart         ....  0.003300
   Hessian update      SOSCFHessUp        .... L-BFGS
   Autom. constraints  SOSCFAutoConstrain .... off
 Level Shifting         CNVShift        .... on
   Level shift para.    LevelShift      ....    0.2500
   Turn off err/grad.   ShiftErr        ....    0.0010
 Zerner damping         CNVZerner       .... off
 Static damping         CNVDamp         .... on
   Fraction old density DampFac         ....    0.7000
   Max. Damping (<1)    DampMax         ....    0.9800
   Min. Damping (>=0)   DampMin         ....    0.0000
   Turn off err/grad.   DampErr         ....    0.1000

SCF Procedure:
 Maximum # iterations   MaxIter         ....  2000
 SCF integral mode      SCFMode         .... Direct
   Integral package                     .... SHARK and LIBINT hybrid scheme
 Reset frequency        DirectResetFreq ....    15
 Integral Threshold     Thresh          ....  2.500e-11 Eh
 Primitive CutOff       TCut            ....  2.500e-12 Eh

Convergence Tolerance:
 Convergence Check Mode ConvCheckMode   .... Total+1el-Energy
 Convergence forced     ConvForced      .... 0
 Energy Change          TolE            ....  1.000e-08 Eh
 1-El. energy change                    ....  1.000e-05 Eh
 Orbital Gradient       TolG            ....  1.000e-05
 Orbital Rotation angle TolX            ....  1.000e-05
 DIIS Error             TolErr          ....  5.000e-07

------------------------------
INITIAL GUESS: MODEL POTENTIAL
------------------------------
Loading Hartree-Fock densities                     ... done
Calculating cut-offs                               ... done
Initializing the effective Hamiltonian             ... done
Setting up the integral package (SHARK)            ... done
Starting the Coulomb interaction                   ... done (   0.0 sec)
Making the grid                                    ... done (   0.2 sec)
Mapping shells                                     ... done
Starting the XC term evaluation                    ... done (   0.0 sec)
  promolecular density results
     # of electrons  =     86.988103565
     EX              =   -110.983633055
     EC              =     -3.294743975
     EX+EC           =   -114.278377030
Transforming the Hamiltonian                       ... done (   0.0 sec)
Diagonalizing the Hamiltonian                      ... done (   0.0 sec)
Back transforming the eigenvectors                 ... done (   0.0 sec)
Now organizing SCF variables                       ... done
                      ------------------
                      INITIAL GUESS DONE (   0.3 sec)
                      ------------------
             **** ENERGY FILE WAS UPDATED (orca.en.tmp) ****
Finished Guess after   1.3 sec
Maximum memory used throughout the entire GUESS-calculation: 19.7 MB


           ************************************************************
           *        Program running with 32 parallel MPI-processes    *
           *              working on a common directory               *
           ************************************************************

-------------------------------------------------------------------------------------------
                                      ORCA LEAN-SCF
                              memory conserving SCF solver
-------------------------------------------------------------------------------------------

--------------------
CPCM SOLVATION MODEL
--------------------
CPCM parameters:
  Epsilon                                         ...       6.0200
  Refrac                                          ...       1.3723
  Rsolv                                           ...       1.3000
  Surface type                                    ... GAUSSIAN VDW
  Discretization scheme                           ... Constant charge density
    Threshold for H atoms                         ...       5.0000 (charges/Ang^2)
    Threshold for non-H atoms                     ...       5.0000 (charges/Ang^2)
  Epsilon function type                           ...         CPCM
Solvent:                                          ... CUSTOM
Radii:
  Scheme                                          ... Element-dependent radii
  Radius for C  used is    3.8550 Bohr (=   2.0400 Ang.)
  Radius for H  used is    2.4944 Bohr (=   1.3200 Ang.)
  Radius for N  used is    3.5149 Bohr (=   1.8600 Ang.)
  Radius for Cu used is    3.1747 Bohr (=   1.6800 Ang.)
Calculating surface                               ...        done! (  0.0s)
Cavity surface points                             ...         1675
Cavity Volume                                     ...    1123.0987
Cavity Surface-area                               ...     652.8051
Calculating surface distance matrix               ...        done! (  0.0s)
Performing Cholesky decomposition & store         ...        done! (  0.1s)
Overall time for CPCM initialization              ...                 0.1s

----------------------------------------D-I-I-S--------------------------------------------
Iteration    Energy (Eh)           Delta-E    RMSDP     MaxDP     DIISErr   Damp  Time(sec)
-------------------------------------------------------------------------------------------
               ***  Starting incremental Fock matrix formation  ***
    1    -1966.7505672057384345     0.00e+00  1.34e-02  1.20e-01  2.57e-01  0.700   1.4
Warning: op=0 Small HOMO/LUMO gap (   0.046) - skipping pre-diagonalization
         Will do a full diagonalization
    2    -1966.8844731093502105    -1.34e-01  7.59e-03  9.04e-02  1.07e-01  0.700   1.1
                               ***Turning on AO-DIIS***
    3    -1966.9319449473589430    -4.75e-02  4.87e-03  3.29e-02  6.34e-02  0.700   0.9
    4    -1966.9600470924085585    -2.81e-02  1.33e-02  1.13e-01  3.74e-02  0.000   0.9
    5    -1967.0237412236517685    -6.37e-02  2.47e-03  2.68e-02  1.09e-02  0.000   0.9
    6    -1967.0250868359701144    -1.35e-03  1.15e-03  8.76e-03  8.64e-03  0.000   0.9
                              *** Initializing SOSCF ***
---------------------------------------S-O-S-C-F--------------------------------------
Iteration    Energy (Eh)           Delta-E    RMSDP     MaxDP     MaxGrad    Time(sec)
--------------------------------------------------------------------------------------
    7    -1967.0253283181366442    -2.41e-04  4.95e-04  4.39e-03  3.20e-03     1.0
               *** Restarting incremental Fock matrix formation ***
    8    -1967.0254251285321061    -9.68e-05  5.97e-04  4.67e-03  9.74e-04     1.2
    9    -1967.0254748305630983    -4.97e-05  9.48e-04  9.50e-03  3.96e-04     1.1
   10    -1967.0254378155639188     3.70e-05  3.70e-04  3.37e-03  1.85e-03     1.1
   11    -1967.0254812590681013    -4.34e-05  3.92e-04  4.48e-03  4.12e-04     1.1
   12    -1967.0254761809840147     5.08e-06  2.15e-04  2.67e-03  3.37e-04     1.1
   13    -1967.0254856230842506    -9.44e-06  5.45e-05  4.10e-04  4.60e-05     1.3
   14    -1967.0254855487648911     7.43e-08  2.17e-05  2.08e-04  6.11e-05     1.0
   15    -1967.0254857146976519    -1.66e-07  1.55e-05  1.43e-04  9.01e-06     1.0
   16    -1967.0254857062325300     8.47e-09  3.75e-06  1.83e-05  9.07e-06     0.9
                 **** Energy Check signals convergence ****

               *****************************************************
               *                     SUCCESS                       *
               *           SCF CONVERGED AFTER  16 CYCLES          *
               *****************************************************

Recomputing exchange energy using gridx3       ... done (    1.241 sec)
Old exchange energy                            :    -22.238125224 Eh
New exchange energy                            :    -22.238114230 Eh
Exchange energy change after final integration :      0.000010993 Eh
Total energy after final integration           :  -1967.025474720 Eh
             **** ENERGY FILE WAS UPDATED (orca.en.tmp) ****

----------------
TOTAL SCF ENERGY
----------------

Total Energy       :      -1967.02547471964385 Eh          -53525.48435 eV

Components:
Nuclear Repulsion  :        597.22391407242935 Eh           16251.28890 eV
Electronic Energy  :      -2564.15547853394037 Eh          -69774.21782 eV
One Electron Energy:      -3897.25477229334911 Eh         -106049.69382 eV
Two Electron Energy:       1333.09929375940851 Eh           36275.47599 eV
CPCM Dielectric    :         -0.09392125158720 Eh              -2.55573 eV

Virial components:
Potential Energy   :      -3929.64784715135465 Eh         -106931.15420 eV
Kinetic Energy     :       1962.62237243171080 Eh           53405.66985 eV
Virial Ratio       :          2.00224347910723

DFT components:
N(Alpha)           :       42.999997246219 electrons
N(Beta)            :       42.999997246219 electrons
N(Total)           :       85.999994492438 electrons
E(X)               :      -88.701281864940 Eh       
E(C)               :       -3.842190714872 Eh       
E(XC)              :      -92.543472579812 Eh       

CPCM Solvation Model Properties:
Surface-charge          :         -1.03463924213051
Corrected charge        :         -1.00000000000000
Outlying charge corr.   :          0.00007240708771 Eh               0.00197 eV
Free-energy (cav+disp)  :  This term is not implemented in the current solvation scheme

---------------
SCF CONVERGENCE
---------------

  Last Energy change         ...   -8.4651e-09  Tolerance :   1.0000e-08
  Last MAX-Density change    ...    1.8270e-05  Tolerance :   1.0000e-07
  Last RMS-Density change    ...    3.7464e-06  Tolerance :   5.0000e-09
  Last DIIS Error            ...    3.1962e-03  Tolerance :   5.0000e-07
  Last Orbital Gradient      ...    9.0688e-06  Tolerance :   1.0000e-05
  Last Orbital Rotation      ...    2.4804e-05  Tolerance :   1.0000e-05


----------------
ORBITAL ENERGIES
----------------

  NO   OCC          E(Eh)            E(eV) 
   0   2.0000    -323.110643     -8792.2876 
   1   2.0000     -38.909104     -1058.7705 
   2   2.0000     -34.114150      -928.2932 
   3   2.0000     -34.113294      -928.2699 
   4   2.0000     -34.112336      -928.2439 
   5   2.0000     -14.367548      -390.9609 
   6   2.0000     -10.299160      -280.2544 
   7   2.0000     -10.239116      -278.6205 
   8   2.0000     -10.221291      -278.1355 
   9   2.0000     -10.220736      -278.1204 
  10   2.0000     -10.219637      -278.0905 
  11   2.0000     -10.213035      -277.9108 
  12   2.0000     -10.211766      -277.8763 
  13   2.0000      -4.393683      -119.5582 
  14   2.0000      -2.895383       -78.7874 
  15   2.0000      -2.888253       -78.5934 
  16   2.0000      -2.873912       -78.2031 
  17   2.0000      -0.946021       -25.7425 
  18   2.0000      -0.894789       -24.3485 
  19   2.0000      -0.803027       -21.8515 
  20   2.0000      -0.785154       -21.3651 
  21   2.0000      -0.702139       -19.1062 
  22   2.0000      -0.646113       -17.5816 
  23   2.0000      -0.618065       -16.8184 
  24   2.0000      -0.558701       -15.2030 
  25   2.0000      -0.529578       -14.4105 
  26   2.0000      -0.522561       -14.2196 
  27   2.0000      -0.494125       -13.4458 
  28   2.0000      -0.479651       -13.0520 
  29   2.0000      -0.460068       -12.5191 
  30   2.0000      -0.455273       -12.3886 
  31   2.0000      -0.418313       -11.3829 
  32   2.0000      -0.396754       -10.7962 
  33   2.0000      -0.395378       -10.7588 
  34   2.0000      -0.385098       -10.4790 
  35   2.0000      -0.380896       -10.3647 
  36   2.0000      -0.375013       -10.2046 
  37   2.0000      -0.368907       -10.0385 
  38   2.0000      -0.366740        -9.9795 
  39   2.0000      -0.337365        -9.1802 
  40   2.0000      -0.310015        -8.4359 
  41   2.0000      -0.295323        -8.0361 
  42   2.0000      -0.282716        -7.6931 
  43   0.0000      -0.197638        -5.3780 
  44   0.0000      -0.072083        -1.9615 
  45   0.0000      -0.052547        -1.4299 
  46   0.0000      -0.044235        -1.2037 
  47   0.0000       0.006865         0.1868 
  48   0.0000       0.023815         0.6480 
  49   0.0000       0.041426         1.1273 
  50   0.0000       0.055497         1.5101 
  51   0.0000       0.072638         1.9766 
  52   0.0000       0.072745         1.9795 
  53   0.0000       0.080484         2.1901 
*Only the first 10 virtual orbitals were printed.

                    ********************************
                    * MULLIKEN POPULATION ANALYSIS *
                    ********************************

-----------------------
MULLIKEN ATOMIC CHARGES
-----------------------
   0 C :   -0.105541
   1 C :   -0.199179
   2 C :    0.115995
   3 C :   -0.198957
   4 C :   -0.109029
   5 C :   -0.096706
   6 H :    0.157339
   7 H :    0.162745
   8 H :    0.123893
   9 H :    0.153086
  10 H :    0.158778
  11 C :    0.286136
  12 N :   -0.538863
  13 H :    0.302834
  14 H :    0.270030
  15 H :    0.174282
  16 H :   -0.049370
  17 Cu:    0.392526
Sum of atomic charges:    1.0000000

--------------------------------
MULLIKEN REDUCED ORBITAL CHARGES
--------------------------------
  0 C s       :     3.210477  s :     3.210477
      pz      :     0.944667  p :     2.809476
      px      :     0.943642
      py      :     0.921167
      dz2     :     0.013398  d :     0.078429
      dxz     :     0.021741
      dyz     :     0.011202
      dx2y2   :     0.017878
      dxy     :     0.014210
      f0      :     0.001092  f :     0.007159
      f+1     :     0.000645
      f-1     :     0.000858
      f+2     :     0.001022
      f-2     :     0.001562
      f+3     :     0.001388
      f-3     :     0.000593

  1 C s       :     3.339289  s :     3.339289
      pz      :     0.944232  p :     2.769855
      px      :     0.898272
      py      :     0.927350
      dz2     :     0.012537  d :     0.082782
      dxz     :     0.020120
      dyz     :     0.015620
      dx2y2   :     0.019522
      dxy     :     0.014984
      f0      :     0.000743  f :     0.007252
      f+1     :     0.001098
      f-1     :     0.000731
      f+2     :     0.000936
      f-2     :     0.001548
      f+3     :     0.001371
      f-3     :     0.000824

  2 C s       :     3.117759  s :     3.117759
      pz      :     0.848267  p :     2.640294
      px      :     0.893876
      py      :     0.898151
      dz2     :     0.028613  d :     0.116253
      dxz     :     0.020711
      dyz     :     0.016407
      dx2y2   :     0.026535
      dxy     :     0.023988
      f0      :     0.001141  f :     0.009700
      f+1     :     0.001450
      f-1     :     0.001012
      f+2     :     0.001230
      f-2     :     0.002192
      f+3     :     0.001327
      f-3     :     0.001347

  3 C s       :     3.279895  s :     3.279895
      pz      :     0.965542  p :     2.830100
      px      :     0.976288
      py      :     0.888270
      dz2     :     0.013527  d :     0.081741
      dxz     :     0.022657
      dyz     :     0.011552
      dx2y2   :     0.021081
      dxy     :     0.012924
      f0      :     0.001094  f :     0.007221
      f+1     :     0.000677
      f-1     :     0.000910
      f+2     :     0.001018
      f-2     :     0.001525
      f+3     :     0.001383
      f-3     :     0.000615

  4 C s       :     3.216574  s :     3.216574
      pz      :     0.954101  p :     2.806243
      px      :     0.900056
      py      :     0.952087
      dz2     :     0.013174  d :     0.078998
      dxz     :     0.017697
      dyz     :     0.013976
      dx2y2   :     0.018933
      dxy     :     0.015218
      f0      :     0.000838  f :     0.007213
      f+1     :     0.001021
      f-1     :     0.000726
      f+2     :     0.000919
      f-2     :     0.001582
      f+3     :     0.001394
      f-3     :     0.000734

  5 C s       :     3.229928  s :     3.229928
      pz      :     0.890697  p :     2.778110
      px      :     0.965012
      py      :     0.922401
      dz2     :     0.024424  d :     0.081513
      dxz     :     0.015532
      dyz     :     0.013292
      dx2y2   :     0.010666
      dxy     :     0.017599
      f0      :     0.000981  f :     0.007155
      f+1     :     0.001231
      f-1     :     0.000867
      f+2     :     0.000967
      f-2     :     0.001614
      f+3     :     0.000536
      f-3     :     0.000959

  6 H s       :     0.820284  s :     0.820284
      pz      :     0.008546  p :     0.022377
      px      :     0.009686
      py      :     0.004145

  7 H s       :     0.815062  s :     0.815062
      pz      :     0.003811  p :     0.022193
      px      :     0.011251
      py      :     0.007131

  8 H s       :     0.853662  s :     0.853662
      pz      :     0.009963  p :     0.022445
      px      :     0.003818
      py      :     0.008664

  9 H s       :     0.824097  s :     0.824097
      pz      :     0.008763  p :     0.022817
      px      :     0.009820
      py      :     0.004234

 10 H s       :     0.818850  s :     0.818850
      pz      :     0.009857  p :     0.022371
      px      :     0.003744
      py      :     0.008771

 11 C s       :     2.988499  s :     2.988499
      pz      :     0.852226  p :     2.592108
      px      :     0.806200
      py      :     0.933682
      dz2     :     0.023860  d :     0.124211
      dxz     :     0.023480
      dyz     :     0.017456
      dx2y2   :     0.030485
      dxy     :     0.028930
      f0      :     0.001232  f :     0.009045
      f+1     :     0.001822
      f-1     :     0.000771
      f+2     :     0.001122
      f-2     :     0.001674
      f+3     :     0.001271
      f-3     :     0.001154

 12 N s       :     3.601645  s :     3.601645
      pz      :     1.113172  p :     3.895456
      px      :     1.153568
      py      :     1.628716
      dz2     :     0.008434  d :     0.039422
      dxz     :     0.007999
      dyz     :     0.007703
      dx2y2   :     0.003844
      dxy     :     0.011442
      f0      :     0.000276  f :     0.002341
      f+1     :     0.000521
      f-1     :     0.000238
      f+2     :     0.000350
      f-2     :     0.000265
      f+3     :     0.000232
      f-3     :     0.000459

 13 H s       :     0.662612  s :     0.662612
      pz      :     0.016581  p :     0.034554
      px      :     0.006668
      py      :     0.011305

 14 H s       :     0.696142  s :     0.696142
      pz      :     0.006064  p :     0.033828
      px      :     0.015320
      py      :     0.012444

 15 H s       :     0.802296  s :     0.802296
      pz      :     0.004554  p :     0.023422
      px      :     0.004888
      py      :     0.013980

 16 H s       :     1.042798  s :     1.042798
      pz      :     0.002768  p :     0.006572
      px      :     0.001958
      py      :     0.001846

 17 Cus       :     6.795006  s :     6.795006
      pz      :     4.085645  p :    12.180678
      px      :     4.056735
      py      :     4.038297
      dz2     :     1.922760  d :     9.631691
      dxz     :     1.820190
      dyz     :     1.901445
      dx2y2   :     1.998762
      dxy     :     1.988535
      f0      :     0.000021  f :     0.000099
      f+1     :     0.000029
      f-1     :     0.000017
      f+2     :     0.000005
      f-2     :     0.000012
      f+3     :     0.000007
      f-3     :     0.000007



                     *******************************
                     * LOEWDIN POPULATION ANALYSIS *
                     *******************************

----------------------
LOEWDIN ATOMIC CHARGES
----------------------
   0 C :   -0.113647
   1 C :   -0.060741
   2 C :   -0.124828
   3 C :   -0.071215
   4 C :   -0.111772
   5 C :   -0.084576
   6 H :    0.156254
   7 H :    0.158173
   8 H :    0.164195
   9 H :    0.157320
  10 H :    0.156839
  11 C :   -0.191639
  12 N :   -0.101978
  13 H :    0.211638
  14 H :    0.192931
  15 H :    0.182579
  16 H :   -0.030737
  17 Cu:    0.511202

-------------------------------
LOEWDIN REDUCED ORBITAL CHARGES
-------------------------------
  0 C s       :     2.769911  s :     2.769911
      pz      :     0.972187  p :     2.932118
      px      :     0.993366
      py      :     0.966566
      dz2     :     0.057055  d :     0.369747
      dxz     :     0.105832
      dyz     :     0.058273
      dx2y2   :     0.076659
      dxy     :     0.071929
      f0      :     0.006608  f :     0.041870
      f+1     :     0.004248
      f-1     :     0.005721
      f+2     :     0.004830
      f-2     :     0.008122
      f+3     :     0.007378
      f-3     :     0.004963

  1 C s       :     2.763072  s :     2.763072
      pz      :     0.950747  p :     2.880875
      px      :     1.012941
      py      :     0.917187
      dz2     :     0.056423  d :     0.375101
      dxz     :     0.086056
      dyz     :     0.069037
      dx2y2   :     0.088846
      dxy     :     0.074739
      f0      :     0.005236  f :     0.041694
      f+1     :     0.007182
      f-1     :     0.003332
      f+2     :     0.004871
      f-2     :     0.007938
      f+3     :     0.007269
      f-3     :     0.005865

  2 C s       :     2.716320  s :     2.716320
      pz      :     0.971481  p :     2.855888
      px      :     0.954065
      py      :     0.930341
      dz2     :     0.111959  d :     0.498555
      dxz     :     0.111436
      dyz     :     0.076885
      dx2y2   :     0.091551
      dxy     :     0.106725
      f0      :     0.006241  f :     0.054065
      f+1     :     0.008813
      f-1     :     0.006326
      f+2     :     0.006769
      f-2     :     0.011198
      f+3     :     0.007983
      f-3     :     0.006735

  3 C s       :     2.766437  s :     2.766437
      pz      :     0.958084  p :     2.895133
      px      :     1.004057
      py      :     0.932992
      dz2     :     0.058079  d :     0.368461
      dxz     :     0.103530
      dyz     :     0.056649
      dx2y2   :     0.081602
      dxy     :     0.068602
      f0      :     0.006711  f :     0.041184
      f+1     :     0.004214
      f-1     :     0.005630
      f+2     :     0.004656
      f-2     :     0.007673
      f+3     :     0.007387
      f-3     :     0.004913

  4 C s       :     2.770727  s :     2.770727
      pz      :     0.963591  p :     2.927975
      px      :     1.031316
      py      :     0.933067
      dz2     :     0.057803  d :     0.371153
      dxz     :     0.085803
      dyz     :     0.068010
      dx2y2   :     0.087430
      dxy     :     0.072107
      f0      :     0.005409  f :     0.041917
      f+1     :     0.007002
      f-1     :     0.003312
      f+2     :     0.005003
      f-2     :     0.008082
      f+3     :     0.007368
      f-3     :     0.005741

  5 C s       :     2.773846  s :     2.773846
      pz      :     0.982197  p :     2.887040
      px      :     0.980869
      py      :     0.923974
      dz2     :     0.103227  d :     0.381145
      dxz     :     0.078324
      dyz     :     0.066432
      dx2y2   :     0.049853
      dxy     :     0.083309
      f0      :     0.005210  f :     0.042545
      f+1     :     0.007650
      f-1     :     0.005915
      f+2     :     0.006632
      f-2     :     0.008480
      f+3     :     0.003877
      f-3     :     0.004782

  6 H s       :     0.783969  s :     0.783969
      pz      :     0.022560  p :     0.059777
      px      :     0.025234
      py      :     0.011982

  7 H s       :     0.782313  s :     0.782313
      pz      :     0.011175  p :     0.059514
      px      :     0.029204
      py      :     0.019136

  8 H s       :     0.775325  s :     0.775325
      pz      :     0.026385  p :     0.060480
      px      :     0.010804
      py      :     0.023291

  9 H s       :     0.781139  s :     0.781139
      pz      :     0.023505  p :     0.061541
      px      :     0.025900
      py      :     0.012136

 10 H s       :     0.783380  s :     0.783380
      pz      :     0.025711  p :     0.059781
      px      :     0.011110
      py      :     0.022959

 11 C s       :     2.828249  s :     2.828249
      pz      :     0.893230  p :     2.841232
      px      :     0.931240
      py      :     1.016763
      dz2     :     0.093091  d :     0.469454
      dxz     :     0.101456
      dyz     :     0.056299
      dx2y2   :     0.106508
      dxy     :     0.112100
      f0      :     0.006351  f :     0.052703
      f+1     :     0.009827
      f-1     :     0.005758
      f+2     :     0.007059
      f-2     :     0.011030
      f+3     :     0.006603
      f-3     :     0.006075

 12 N s       :     3.096021  s :     3.096021
      pz      :     1.145988  p :     3.869326
      px      :     1.184533
      py      :     1.538806
      dz2     :     0.031906  d :     0.127119
      dxz     :     0.032874
      dyz     :     0.019094
      dx2y2   :     0.013471
      dxy     :     0.029774
      f0      :     0.000992  f :     0.009512
      f+1     :     0.001840
      f-1     :     0.001185
      f+2     :     0.001465
      f-2     :     0.002197
      f+3     :     0.000673
      f-3     :     0.001161

 13 H s       :     0.686036  s :     0.686036
      pz      :     0.047472  p :     0.102326
      px      :     0.021134
      py      :     0.033721

 14 H s       :     0.706866  s :     0.706866
      pz      :     0.018052  p :     0.100203
      px      :     0.041952
      py      :     0.040200

 15 H s       :     0.756714  s :     0.756714
      pz      :     0.010798  p :     0.060707
      px      :     0.013103
      py      :     0.036806

 16 H s       :     1.016133  s :     1.016133
      pz      :     0.006135  p :     0.014604
      px      :     0.004333
      py      :     0.004136

 17 Cus       :     6.520132  s :     6.520132
      pz      :     4.120819  p :    12.195649
      px      :     4.036490
      py      :     4.038340
      dz2     :     1.956132  d :     9.772905
      dxz     :     1.868835
      dyz     :     1.930902
      dx2y2   :     2.012344
      dxy     :     2.004692
      f0      :     0.000021  f :     0.000112
      f+1     :     0.000030
      f-1     :     0.000018
      f+2     :     0.000007
      f-2     :     0.000021
      f+3     :     0.000007
      f-3     :     0.000007



                      *****************************
                      * MAYER POPULATION ANALYSIS *
                      *****************************

  NA   - Mulliken gross atomic population
  ZA   - Total nuclear charge
  QA   - Mulliken gross atomic charge
  VA   - Mayer's total valence
  BVA  - Mayer's bonded valence
  FA   - Mayer's free valence

  ATOM       NA         ZA         QA         VA         BVA        FA
  0 C      6.1055     6.0000    -0.1055     3.8735     3.8735     0.0000
  1 C      6.1992     6.0000    -0.1992     3.9558     3.9558    -0.0000
  2 C      5.8840     6.0000     0.1160     3.7069     3.7069    -0.0000
  3 C      6.1990     6.0000    -0.1990     3.9375     3.9375    -0.0000
  4 C      6.1090     6.0000    -0.1090     3.8712     3.8712     0.0000
  5 C      6.0967     6.0000    -0.0967     3.8911     3.8911     0.0000
  6 H      0.8427     1.0000     0.1573     0.9630     0.9630    -0.0000
  7 H      0.8373     1.0000     0.1627     0.9599     0.9599     0.0000
  8 H      0.8761     1.0000     0.1239     1.0394     1.0394     0.0000
  9 H      0.8469     1.0000     0.1531     0.9911     0.9911    -0.0000
 10 H      0.8412     1.0000     0.1588     0.9633     0.9633     0.0000
 11 C      5.7139     6.0000     0.2861     3.7880     3.7880    -0.0000
 12 N      7.5389     7.0000    -0.5389     3.0177     3.0177     0.0000
 13 H      0.6972     1.0000     0.3028     0.9082     0.9082    -0.0000
 14 H      0.7300     1.0000     0.2700     0.9246     0.9246     0.0000
 15 H      0.8257     1.0000     0.1743     0.9681     0.9681     0.0000
 16 H      1.0494     1.0000    -0.0494     1.0062     1.0062     0.0000
 17 Cu    28.6075    29.0000     0.3925     1.7637     1.7637    -0.0000

  Mayer bond orders larger than 0.100000
B(  0-C ,  1-C ) :   1.4554 B(  0-C ,  5-C ) :   1.3622 B(  0-C ,  6-H ) :   0.9671 
B(  1-C ,  2-C ) :   1.2752 B(  1-C ,  8-H ) :   0.9600 B(  2-C ,  3-C ) :   1.2846 
B(  2-C , 11-C ) :   1.1213 B(  3-C ,  4-C ) :   1.4454 B(  3-C ,  9-H ) :   0.9573 
B(  4-C ,  5-C ) :   1.3538 B(  4-C , 10-H ) :   0.9657 B(  5-C ,  7-H ) :   0.9606 
B( 11-C , 12-N ) :   1.0989 B( 11-C , 15-H ) :   0.9522 B( 11-C , 17-Cu) :   0.5359 
B( 12-N , 13-H ) :   0.8565 B( 12-N , 14-H ) :   0.9027 B( 16-H , 17-Cu) :   0.8449 


-------
TIMINGS
-------

Total SCF time: 0 days 0 hours 0 min 20 sec 

Total time                  ....      20.276 sec
Sum of individual times     ....      19.310 sec  ( 95.2%)

SCF preparation             ....       1.049 sec  (  5.2%)
Fock matrix formation       ....      16.774 sec  ( 82.7%)
  Startup                   ....       0.048 sec  (  0.3% of F)
  Split-RI-J                ....       1.278 sec  (  7.6% of F)
  Chain of spheres X        ....       9.979 sec  ( 59.5% of F)
  XC integration            ....       3.970 sec  ( 23.7% of F)
    XC Preparation          ....       0.000 sec  (  0.0% of XC)
    Basis function eval.    ....       0.171 sec  (  4.3% of XC)
    Density eval.           ....       0.168 sec  (  4.2% of XC)
    XC-Functional eval.     ....       0.016 sec  (  0.4% of XC)
    XC-Potential eval.      ....       0.177 sec  (  4.5% of XC)
  CPCM terms                ....       1.644 sec  (  9.8% of F)
Diagonalization             ....       0.000 sec  (  0.0%)
Density matrix formation    ....       0.242 sec  (  1.2%)
Total Energy calculation    ....       0.129 sec  (  0.6%)
Population analysis         ....       0.058 sec  (  0.3%)
Orbital Transformation      ....       0.100 sec  (  0.5%)
Orbital Orthonormalization  ....       0.000 sec  (  0.0%)
DIIS solution               ....       0.483 sec  (  2.4%)
SOSCF solution              ....       0.475 sec  (  2.3%)
Finished LeanSCF after  20.4 sec

Maximum memory used throughout the entire LEANSCF-calculation: 32.3 MB


           ************************************************************
           *        Program running with 32 parallel MPI-processes    *
           *              working on a common directory               *
           ************************************************************

------------------------------------------------------------------------------
                         ORCA PROPERTY INTEGRAL CALCULATIONS
------------------------------------------------------------------------------

GBWName                                   ... orca.gbw
Number of atoms                           ...     18
Number of basis functions                 ...    347
Max core memory                           ...   2000 MB

Dipole integrals                          ... YES
Quadrupole integrals                      ...  NO
Linear momentum integrals                 ...  NO
Angular momentum integrals                ...  NO
Higher moments length integrals           ...  NO
Higher moments velocity integrals         ...  NO
Kinetic energy integrals                  ...  NO
GIAO right hand sides                     ...  NO
GIAO dipole derivative integrals          ...  NO
SOC integrals                             ...  NO
EPR diamagnetic integrals (GIAO)          ...  NO
EPR gauge integrals                       ...  NO
Field gradient integrals                  ...  NO (   0 nuclei)
Spin-dipole/Fermi contact integrals       ...  NO (   0 nuclei)
Contact density integrals                 ...  NO (   0 nuclei)
Nucleus-orbit integrals                   ...  NO (   0 nuclei)
Geometric perturbations                   ...  NO (  18 nuclei)

Choice of electric origin   ... Center of mass
Position of electric origin ... ( -0.0837,  4.1380,  2.9398) 
Choice of magnetic origin   ... GIAO
Position of magnetic origin ... (  0.0000,  0.0000,  0.0000) 

Calculating integrals                     ... Electric Dipole (Length)     done (  0.0 sec)

Property integrals calculated in   0.0 sec

Maximum memory used throughout the entire PROPINT-calculation: 20.5 MB


-------------------------------------------------------------------------------
                          DFT DISPERSION CORRECTION                            
                                                                               
                              DFTD3 V3.1  Rev 1                                
                          USING Becke-Johnson damping                          
-------------------------------------------------------------------------------
The B3LYP functional is recognized
Active option DFTDOPT                   ...         4   

molecular C6(AA) [au] = 4494.016956 


            DFT-D V3
 parameters
 s6 scaling factor         :     1.0000 
 a1 scaling factor         :     0.3981 
 s8 scaling factor         :     1.9889 
 a2 scaling factor         :     4.4211 
 ad hoc parameters k1-k3   :    16.0000     1.3333    -4.0000 

 Edisp/kcal,au: -21.879258239933  -0.034866813666 
 E6   /kcal   :  -9.794037734 
 E8   /kcal   : -12.085220506 
 % E8         :  55.235969948 

-------------------------   ----------------
Dispersion correction           -0.034866814
-------------------------   ----------------


-------------------------   --------------------
FINAL SINGLE POINT ENERGY     -1967.060341533310
-------------------------   --------------------



           ************************************************************
           *        Program running with 32 parallel MPI-processes    *
           *              working on a common directory               *
           ************************************************************
------------------------------------------------------------------------------
                         ORCA SCF GRADIENT CALCULATION
------------------------------------------------------------------------------

Nuc. rep. gradient        (SHARK) ... done (  0.0 sec)
HCore & Overlap gradient  (SHARK) ... done (  0.0 sec)
Split-RIJ-J gradient      (SHARK) ... done (  0.4 sec)
done (  3.7 sec)
XC gradient                       ... done (  0.5 sec)
CPCM gradient                     ... done (  0.5 sec)
Dispersion correction             ... done (  0.0 sec)

-------------------
DISPERSION GRADIENT
-------------------

   1   C   :   -0.000453611   -0.000064896   -0.000121339
   2   C   :   -0.000486174    0.000000064   -0.000085112
   3   C   :   -0.000108051   -0.000023033    0.000050839
   4   C   :   -0.000262616   -0.000360838    0.000399467
   5   C   :   -0.000194341   -0.000294544    0.000260655
   6   C   :   -0.000300649   -0.000180685    0.000045047
   7   H   :   -0.000240909    0.000020692   -0.000178303
   8   H   :   -0.000237451   -0.000155156    0.000026031
   9   H   :   -0.000237822    0.000160354   -0.000211262
  10   H   :    0.000082763   -0.000185415    0.000311986
  11   H   :   -0.000041995   -0.000197197    0.000213783
  12   C   :    0.000350162    0.000263241   -0.000036522
  13   N   :    0.000454195    0.000191683    0.000261977
  14   H   :    0.000223223    0.000151813    0.000283159
  15   H   :    0.000264243    0.000108440    0.000144695
  16   H   :    0.000105442    0.000294475    0.000054044
  17   H   :    0.000392034   -0.000158128    0.000009038
  18   Cu  :    0.000691557    0.000429130   -0.001428184

Difference to translation invariance:
           :   -0.0000000000   -0.0000000000   -0.0000000000

Difference to rotation invariance:
           :    0.0000000000   -0.0000000000   -0.0000000000

Norm of the Dispersion gradient    ...    0.0023291014
RMS gradient                       ...    0.0003169506
MAX gradient                       ...    0.0014281835

------------------
CARTESIAN GRADIENT
------------------

   1   C   :   -0.008748288   -0.007104405   -0.000370854
   2   C   :    0.018116486    0.004728058   -0.001188324
   3   C   :   -0.022822841   -0.008739330    0.011510044
   4   C   :    0.005660760    0.011481999    0.001268112
   5   C   :   -0.008114456   -0.009046698    0.001798126
   6   C   :   -0.002991660   -0.002183550    0.001106424
   7   H   :   -0.000775779   -0.000260027    0.000019740
   8   H   :   -0.000367187    0.000477609    0.000436678
   9   H   :   -0.002275714    0.001209202   -0.000224114
  10   H   :   -0.001550068   -0.001623752    0.002410281
  11   H   :   -0.000670974   -0.001192548   -0.000328391
  12   C   :    0.035911948   -0.001983539   -0.059646224
  13   N   :   -0.009300078   -0.019511565    0.026795985
  14   H   :   -0.006575509    0.012777612    0.015992650
  15   H   :    0.018406658    0.007606983   -0.011770009
  16   H   :   -0.008356152    0.008231606    0.027572030
  17   H   :   -0.010195093    0.008755235   -0.024374875
  18   Cu  :    0.004647947   -0.003622889    0.008992724

Difference to translation invariance:
           :    0.0000000000   -0.0000000000   -0.0000000001

Difference to rotation invariance:
           :   -0.0005008462    0.0014871875   -0.0001384429

[...]
     34      -0.056683   0.037300   0.003342  -0.001716   0.000377   0.000623
     35       0.034550  -0.022604  -0.002124   0.001029   0.000715  -0.000559
     36      -0.000943   0.000541   0.000051   0.000035   0.036358   0.017977
     37       0.001837  -0.001174  -0.000190   0.000014   0.012173   0.076234
     38      -0.002016   0.001404   0.000154  -0.000109   0.038659  -0.034929
     39      -0.003843   0.000503   0.001008   0.000346  -0.096373   0.106253
     40      -0.010241   0.007447   0.000749  -0.001029   0.455013  -0.488406
     41       0.007842  -0.007832   0.000059   0.001459  -0.489972   0.539539
     42      -0.000049  -0.001063  -0.000141   0.000973  -0.386171  -0.353197
     43      -0.004985   0.002752  -0.000069   0.000955  -0.623547  -0.568798
     44       0.001065  -0.001563   0.000121   0.000414  -0.050340  -0.055063
     45      -0.130946   0.084589   0.007611  -0.003092  -0.004630   0.007005
     46       0.644608  -0.426083  -0.036536   0.019969   0.006362  -0.015723
     47      -0.389937   0.257286   0.022126  -0.011966  -0.006865   0.008461
     48      -0.001148   0.000424   0.000082   0.000274   0.002346   0.000110
     49       0.002390  -0.001421  -0.000143  -0.000085  -0.001429   0.000860
     50       0.001757  -0.000883  -0.000039  -0.000247  -0.002219   0.000175
     51       0.000025  -0.000023  -0.000001   0.000003  -0.000000   0.000006
     52      -0.000042   0.000030   0.000003  -0.000004   0.000026   0.000030
     53       0.000039  -0.000016  -0.000005  -0.000003   0.000065  -0.000001


-----------
IR SPECTRUM
-----------

 Mode   freq       eps      Int      T**2         TX        TY        TZ
       cm**-1   L/(mol*cm) km/mol    a.u.
----------------------------------------------------------------------------
  6:     44.93   0.002411   12.18  0.016746  ( 0.097517 -0.082419  0.021054)
  7:     69.32   0.001485    7.51  0.006686  ( 0.063569  0.043487 -0.027459)
  8:    145.14   0.019562   98.86  0.042060  ( 0.185227 -0.021294 -0.085423)
  9:    225.50   0.005562   28.11  0.007697  ( 0.021207  0.081709 -0.023890)
 10:    280.47   0.064019  323.53  0.071230  (-0.224861  0.034655  0.139523)
 11:    304.99   0.028507  144.06  0.029168  ( 0.158321 -0.029982 -0.056604)
 12:    391.81   0.026104  131.92  0.020790  ( 0.134513  0.027138 -0.044273)
 13:    402.73   0.013056   65.98  0.010116  (-0.056640 -0.078611  0.026994)
 14:    415.60   0.016201   81.87  0.012165  (-0.038054  0.101660 -0.019541)
 15:    472.47   0.002952   14.92  0.001950  (-0.027266  0.014535  0.031542)
 16:    496.43   0.003577   18.07  0.002248  ( 0.010050 -0.007389  0.045747)
 17:    584.01   0.005615   28.38  0.003001  (-0.045411 -0.020234  0.023000)
 18:    628.47   0.000361    1.82  0.000179  ( 0.012555  0.000684  0.004588)
 19:    679.74   0.005572   28.16  0.002558  (-0.007666  0.026676  0.042279)
 20:    722.32   0.014045   70.98  0.006068  ( 0.021730 -0.057494 -0.047855)
 21:    784.15   0.060908  307.80  0.024239  (-0.140075  0.027822  0.061999)
 22:    793.27   0.009695   48.99  0.003814  ( 0.061710 -0.000630 -0.002311)
 23:    809.82   0.002350   11.88  0.000906  (-0.021222  0.007073  0.020128)
 24:    845.31   0.000172    0.87  0.000064  ( 0.007737 -0.000014  0.001923)
 25:    953.98   0.004974   25.14  0.001627  ( 0.034841  0.002954 -0.020114)
 26:    980.92   0.015363   77.64  0.004888  ( 0.062406  0.013526 -0.028462)
 27:    997.22   0.001329    6.71  0.000416  (-0.018062 -0.005936  0.007369)
 28:   1018.49   0.001301    6.57  0.000399  (-0.018728 -0.006812  0.001159)
 29:   1030.84   0.000149    0.75  0.000045  ( 0.005183 -0.000640 -0.004206)
 30:   1046.46   0.000311    1.57  0.000093  (-0.003604 -0.008480 -0.002810)
 31:   1103.59   0.002267   11.46  0.000641  ( 0.016438 -0.018569  0.005113)
 32:   1137.99   0.002996   15.14  0.000822  ( 0.000170  0.006609  0.027892)
 33:   1187.92   0.000377    1.90  0.000099  ( 0.005873 -0.007047  0.003854)
 34:   1210.32   0.018114   91.54  0.004670  ( 0.060915  0.025871 -0.017041)
 35:   1238.50   0.010252   51.81  0.002583  ( 0.043231  0.013174 -0.023249)
 36:   1312.26   0.036498  184.45  0.008679  ( 0.068898  0.053571  0.032598)
 37:   1358.75   0.014321   72.37  0.003289  ( 0.056321  0.008586  0.006573)
 38:   1377.48   0.004455   22.52  0.001009  ( 0.014579  0.025879 -0.011274)
 39:   1481.29   0.018020   91.06  0.003796  (-0.031647 -0.049222  0.019281)
 40:   1515.76   0.013537   68.41  0.002787  ( 0.046264  0.022655  0.011552)
 41:   1542.98   0.029860  150.90  0.006039  ( 0.070201  0.032647 -0.006722)
 42:   1608.70   0.001946    9.84  0.000378  (-0.017563 -0.008302  0.000416)
 43:   1632.82   0.039844  201.36  0.007615  ( 0.075839  0.039198 -0.018081)
 44:   1646.95   0.053212  268.91  0.010083  ( 0.080590  0.023977  0.054891)
 45:   1845.23   0.056669  286.38  0.009584  ( 0.024730 -0.023423 -0.091780)
 46:   3184.93   0.000333    1.68  0.000033  ( 0.001840 -0.005134 -0.001701)
 47:   3187.86   0.000717    3.62  0.000070  (-0.007091  0.004418  0.000599)
 48:   3191.70   0.002897   14.64  0.000283  (-0.008956  0.013314  0.005076)
 49:   3193.64   0.001071    5.41  0.000105  ( 0.009359 -0.004109 -0.000400)
 50:   3204.14   0.000822    4.15  0.000080  (-0.004904  0.004069 -0.006280)
 51:   3209.64   0.001168    5.90  0.000114  ( 0.009061  0.004768 -0.002957)
 52:   3487.75   0.054605  275.95  0.004886  (-0.044009 -0.031256 -0.044407)
 53:   3585.96   0.032260  163.03  0.002807  (-0.014298 -0.047098  0.019616)

* The epsilon (eps) is given for a Dirac delta lineshape.
** The dipole moment derivative (T) already includes vibrational overlap.

The first frequency considered to be a vibration is 6
The total number of vibrations considered is 48


--------------------------
THERMOCHEMISTRY AT 298.15K
--------------------------

Temperature         ...   298.15 K
Pressure            ...     1.00 atm
Total Mass          ...   170.71 AMU
Quasi RRHO          ...     True
Cut-Off Frequency   ...     1.00 cm^-1

Throughout the following assumptions are being made:
  (1) The electronic state is orbitally nondegenerate
  (2) There are no thermally accessible electronically excited states
  (3) Hindered rotations indicated by low frequency modes are not
      treated as such but are treated as vibrations and this may
      cause some error
  (4) All equations used are the standard statistical mechanics
      equations for an ideal gas
  (5) All vibrations are strictly harmonic

freq.      44.93  E(vib)   ...       0.53 
freq.      69.32  E(vib)   ...       0.50 
freq.     145.14  E(vib)   ...       0.41 
freq.     225.50  E(vib)   ...       0.33 
freq.     280.47  E(vib)   ...       0.28 
freq.     304.99  E(vib)   ...       0.26 
freq.     391.81  E(vib)   ...       0.20 
freq.     402.73  E(vib)   ...       0.19 
freq.     415.60  E(vib)   ...       0.18 
freq.     472.47  E(vib)   ...       0.15 
freq.     496.43  E(vib)   ...       0.14 
freq.     584.01  E(vib)   ...       0.11 
freq.     628.47  E(vib)   ...       0.09 
freq.     679.74  E(vib)   ...       0.08 
freq.     722.32  E(vib)   ...       0.07 
freq.     784.15  E(vib)   ...       0.05 
freq.     793.27  E(vib)   ...       0.05 
freq.     809.82  E(vib)   ...       0.05 
freq.     845.31  E(vib)   ...       0.04 
freq.     953.98  E(vib)   ...       0.03 
freq.     980.92  E(vib)   ...       0.02 
freq.     997.22  E(vib)   ...       0.02 
freq.    1018.49  E(vib)   ...       0.02 
freq.    1030.84  E(vib)   ...       0.02 
freq.    1046.46  E(vib)   ...       0.02 
freq.    1103.59  E(vib)   ...       0.02 
freq.    1137.99  E(vib)   ...       0.01 
freq.    1187.92  E(vib)   ...       0.01 
freq.    1210.32  E(vib)   ...       0.01 
freq.    1238.50  E(vib)   ...       0.01 
freq.    1312.26  E(vib)   ...       0.01 
freq.    1358.75  E(vib)   ...       0.01 
freq.    1377.48  E(vib)   ...       0.01 
freq.    1481.29  E(vib)   ...       0.00 
freq.    1515.76  E(vib)   ...       0.00 
freq.    1542.98  E(vib)   ...       0.00 
freq.    1608.70  E(vib)   ...       0.00 
freq.    1632.82  E(vib)   ...       0.00 
freq.    1646.95  E(vib)   ...       0.00 
freq.    1845.23  E(vib)   ...       0.00 
freq.    3184.93  E(vib)   ...       0.00 
freq.    3187.86  E(vib)   ...       0.00 
freq.    3191.70  E(vib)   ...       0.00 
freq.    3193.64  E(vib)   ...       0.00 
freq.    3204.14  E(vib)   ...       0.00 
freq.    3209.64  E(vib)   ...       0.00 
freq.    3487.75  E(vib)   ...       0.00 
freq.    3585.96  E(vib)   ...       0.00 

------------
INNER ENERGY
------------

The inner energy is: U= E(el) + E(ZPE) + E(vib) + E(rot) + E(trans)
    E(el)   - is the total energy from the electronic structure calculation
              = E(kin-el) + E(nuc-el) + E(el-el) + E(nuc-nuc)
    E(ZPE)  - the the zero temperature vibrational energy from the frequency calculation
    E(vib)  - the the finite temperature correction to E(ZPE) due to population
              of excited vibrational states
    E(rot)  - is the rotational thermal energy
    E(trans)- is the translational thermal energy

Summary of contributions to the inner energy U:
Electronic energy                ...  -1967.14357900 Eh
Zero point energy                ...      0.14254625 Eh      89.45 kcal/mol
Thermal vibrational correction   ...      0.00627274 Eh       3.94 kcal/mol
Thermal rotational correction    ...      0.00141627 Eh       0.89 kcal/mol
Thermal translational correction ...      0.00141627 Eh       0.89 kcal/mol
-----------------------------------------------------------------------
Total thermal energy                  -1966.99192746 Eh


Summary of corrections to the electronic energy:
(perhaps to be used in another calculation)
Total thermal correction                  0.00910528 Eh       5.71 kcal/mol
Non-thermal (ZPE) correction              0.14254625 Eh      89.45 kcal/mol
-----------------------------------------------------------------------
Total correction                          0.15165154 Eh      95.16 kcal/mol


--------
ENTHALPY
--------

The enthalpy is H = U + kB*T
                kB is Boltzmann's constant
Total thermal energy              ...  -1966.99192746 Eh 
Thermal Enthalpy correction       ...      0.00094421 Eh       0.59 kcal/mol
-----------------------------------------------------------------------
Total Enthalpy                    ...  -1966.99098325 Eh


Note: Only C1 symmetry has been detected, increase convergence thresholds 
      if your molecule has a higher symmetry. Symmetry factor of 1.0 is   
      used for the rotational entropy correction. 
 

Note: Rotational entropy computed according to Herzberg 
Infrared and Raman Spectra, Chapter V,1, Van Nostrand Reinhold, 1945 
Point Group:  C1, Symmetry Number:   1  
Rotational constants in cm-1:     0.095846     0.021398     0.020629 

Vibrational entropy computed according to the QRRHO of S. Grimme
Chem.Eur.J. 2012 18 9955 using a reference frequency of 100.0 cm-1


-------
ENTROPY
-------

The entropy contributions are T*S = T*(S(el)+S(vib)+S(rot)+S(trans))
     S(el)   - electronic entropy
     S(vib)  - vibrational entropy
     S(rot)  - rotational entropy
     S(trans)- translational entropy
The entropies will be listed as multiplied by the temperature to get
units of energy

Electronic entropy                ...      0.00000000 Eh      0.00 kcal/mol
Vibrational entropy               ...      0.01050594 Eh      6.59 kcal/mol
Rotational entropy                ...      0.01426501 Eh      8.95 kcal/mol
Translational entropy             ...      0.01962863 Eh     12.32 kcal/mol
-----------------------------------------------------------------------
Final entropy term                ...      0.04439957 Eh     27.86 kcal/mol

In case the symmetry of your molecule has not been determined correctly
or in case you have a reason to use a different symmetry number we print 
out the resulting rotational entropy values for sn=1,12:

 non-linear molecules -----------------------------------
|  sn= 1 | S(rot)=       0.01426501 Eh      8.95 kcal/mol|
|  sn= 2 | S(rot)=       0.01361055 Eh      8.54 kcal/mol|
|  sn= 3 | S(rot)=       0.01322772 Eh      8.30 kcal/mol|
|  sn= 4 | S(rot)=       0.01295610 Eh      8.13 kcal/mol|
|  sn= 5 | S(rot)=       0.01274541 Eh      8.00 kcal/mol|
|  sn= 6 | S(rot)=       0.01257326 Eh      7.89 kcal/mol|
|  sn= 7 | S(rot)=       0.01242772 Eh      7.80 kcal/mol|
|  sn= 8 | S(rot)=       0.01230164 Eh      7.72 kcal/mol|
|  sn= 9 | S(rot)=       0.01219043 Eh      7.65 kcal/mol|
|  sn=10 | S(rot)=       0.01209095 Eh      7.59 kcal/mol|
|  sn=11 | S(rot)=       0.01200096 Eh      7.53 kcal/mol|
|  sn=12 | S(rot)=       0.01191881 Eh      7.48 kcal/mol|
 linear molecules ---------------------------------------
|  Dinfh | S(rot)=       0.00899024 Eh      5.64 kcal/mol|
|  Cinfv | S(rot)=       0.00964469 Eh      6.05 kcal/mol|
 --------------------------------------------------------


-------------------
GIBBS FREE ENERGY
-------------------

The Gibbs free energy is G = H - T*S

Total enthalpy                    ...  -1966.99098325 Eh 
Total entropy correction          ...     -0.04439957 Eh    -27.86 kcal/mol
-----------------------------------------------------------------------
Final Gibbs free energy         ...  -1967.03538282 Eh

For completeness - the Gibbs free energy minus the electronic energy
G-E(el)                           ...      0.10819617 Eh     67.89 kcal/mol


Maximum memory used throughout the entire PROP-calculation: 110.0 MB

--------------------------------
SUGGESTED CITATIONS FOR THIS RUN
--------------------------------

Below you find a list of papers that are relevant to this ORCA run
We neither can nor want to force you to cite these papers, but we appreciate if you do
You receive ORCA, which is the product of decades of hard work by many enthusiastic individuals, for free
The only thing we kindly ask in return is that you cite our papers,
We deeply appreciate it, if you show your appreciation for ORCA by not just citing the generic ORCA reference.

Please note that relegating all ORCA citations to the supporting information does *not* help us.
SI sections are not indexed - citations you put there will not count into any citation statistics
But we need these citations in order to attract the funding resources that allow us to do what we are doing

Therefore, if you are a happy ORCA user, please consider citing a few of the papers listed below in the main body of your paper

In addition to the list printed below, the program has created the file orca.bibtex that contains the list in bibtex format
You can import this file easily into all common literature databanks and citation aid programs


List of essential papers. We consider these as the minimum necessary citations

  1. Neese, F.
     Software update: the ORCA program system, version 6.0
     WIRES Comput. Molec. Sci. 2025 15(1), e70019
     doi.org/10.1002/wcms.7019

List of papers to cite with high priority. The work reported in these papers was absolutely
necessary for this run to complete.
Our perspective: the developers of density functionals and basis sets usually get cited in chemistry papers
Good! But without the algorithms to do something with them, the functionals or basis sets would not do anything.
Hence, in our opinion, the algorithm design and method developments papers are equally worthy of getting cited

  1. Neese, F.
     An improvement of the resolution of the identity approximation for the formation of the Coulomb matrix
     J. Comp. Chem. 2003 24(14), 1740-1747
     doi.org/10.1002/jcc.10318
  2. Neese, F.; Wennmohs, F.; Hansen, A.; Becker, U.
     Efficient, approximate and parallel Hartree-Fock and hybrid DFT calculations. A 'chain-of-spheres' algorithm for the Hartree-Fock exchange
     Chem. Phys. 2009 356(1-3), 98-109
     doi.org/10.1016/j.chemphys.2008.10.036
  3. Grimme, S.; Antony, J.; Ehrlich, S.; Krieg, H.
     A consistent and accurate ab initio parametrization of density functional dispersion correction (DFT-D) for the 94 elements H-Pu
     J. Chem. Phys. 2010 132 , 154104
     doi.org/10.1063/1.3382344
  4. Grimme, S.; Ehrlich, S.; Goerigk, L.
     Effect of the damping function in dispersion corrected density functional theory
     J. Comput. Chem. 2011 32(7), 1456-1465
     doi.org/10.1002/jcc.21759
  5. Bykov, D.; Petrenko, T.; Izsak, R.; Kossmann, S.; Becker, U.; Valeev, E.; Neese, F.
     Efficient implementation of the analytic second derivatives of Hartree-Fock and hybrid DFT energies: a detailed analysis of different approximations
     Molec. Phys. 2015 113 , 1961-1977
     doi.org/10.1080/00268976.2015.1025114
  6. Garcia-Rates, M.; Neese, F.
     Efficient implementation of the analytical second derivatives of hartree-fock and hybrid DFT energies within the framework of the conductor-like polarizable continuum model
     J. Comput. Chem. 2019 40 , 1816-1828
     doi.org/10.1002/jcc.25833
  7. Garcia-Rates, M.; Neese, F.
     Effect of the Solute Cavity on the Solvation Energy and its Derivatives within the Framework of the Gaussian Charge Scheme
     J. Comput. Chem. 2020 41 , 922-939
     doi.org/10.1002/jcc.26139
  8. Helmich-Paris, B.; de Souza, B.; Neese, F.; Izsák, R.
     An improved chain of spheres for exchange algorithm
     J. Chem. Phys. 2021 155(10), 104109
     doi.org/10.1063/5.0058766
  9. Neese, F.
     The SHARK Integral Generation and Digestion System
     J. Comp. Chem. 2022 44(3), 381
     doi.org/10.1002/jcc.26942

List of suggested additional citations. These are papers that are important in the 'surrounding' of 
of this run, or papers that preceded the highly important papers. If you like your results we are grateful for a citation.

  1. Izsak, R.; Neese, F.
     An overlap fitted chain of spheres exchange method
     J. Chem. Phys. 2011 135 , 144105
     doi.org/10.1063/1.3646921
  2. Izsak, R.; Hansen, A.; Neese, F.
     The resolution of identity and chain of spheres approximations for the LPNO-CCSD singles Fock term
     Molec. Phys. 2012 110 , 2413-2417
     doi.org/10.1080/00268976.2012.687466
  3. Neese, F.
     The ORCA program system
     WIRES Comput. Molec. Sci. 2012 2(1), 73-78
     doi.org/10.1002/wcms.81
  4. Izsak, R.; Neese, F.; Klopper, W.
     Robust fitting techniques in the chain of spheres approximation to the Fock exchange: The role of the complementary space
     J. Chem. Phys. 2013 139 , 
     doi.org/10.1063/1.4819264
  5. Neese, F.
     Software update: the ORCA program system, version 4.0
     WIRES Comput. Molec. Sci. 2018 8(1), 1-6
     doi.org/10.1002/wcms.1327
  6. Neese, F.; Wennmohs, F.; Becker, U.; Riplinger, C.
     The ORCA quantum chemistry program package
     J. Chem. Phys. 2020 152(22), 224108
     doi.org/10.1063/5.0004608
  7. Neese, F.
     Software update: The ORCA program system—Version 5.0
     WIRES Comput. Molec. Sci. 2022 12(1), e1606
     doi.org/10.1002/wcms.1606

List of optional additional citations

  1. Neese, F.
     Approximate second-order SCF convergence for spin unrestricted wavefunctions
     Chem. Phys. Lett. 2000 325(1-3), 93-98
     doi.org/10.1016/s0009-2614(00)00662-x

Timings for individual modules:

Sum of individual times          ...     1006.962 sec (=  16.783 min)
Startup calculation              ...       96.420 sec (=   1.607 min)   9.6 %
SCF iterations                   ...      529.974 sec (=   8.833 min)  52.6 %
Property integrals               ...       71.920 sec (=   1.199 min)   7.1 %
SCF Response                     ...       74.648 sec (=   1.244 min)   7.4 %
Property calculations            ...       64.217 sec (=   1.070 min)   6.4 %
SCF Gradient evaluation          ...      169.584 sec (=   2.826 min)  16.8 %
Geometry relaxation              ...        0.199 sec (=   0.003 min)   0.0 %
                             ****ORCA TERMINATED NORMALLY****
TOTAL RUN TIME: 0 days 0 hours 17 minutes 56 seconds 903 msec
