
                                 *****************
                                 * O   R   C   A *
                                 *****************

                                            #,                                       
                                            ###                                      
                                            ####                                     
                                            #####                                    
                                            ######                                   
                                           ########,                                 
                                     ,,################,,,,,                         
                               ,,#################################,,                 
                          ,,##########################################,,             
                       ,#########################################, ''#####,          
                    ,#############################################,,   '####,        
                  ,##################################################,,,,####,       
                ,###########''''           ''''###############################       
              ,#####''   ,,,,##########,,,,          '''####'''          '####       
            ,##' ,,,,###########################,,,                        '##       
           ' ,,###''''                  '''############,,,                           
         ,,##''                                '''############,,,,        ,,,,,,###''
      ,#''                                            '''#######################'''  
     '                                                          ''''####''''         
             ,#######,   #######,   ,#######,      ##                                
            ,#'     '#,  ##    ##  ,#'     '#,    #''#        ,####,    ,#,          
            ##       ##  ##   ,#'  ##            #'  '#       #'       ,# #          
            ##       ##  #######   ##           ,######,      #####,      #          
            '#,     ,#'  ##    ##  '#,     ,#' ,#      #,     #,   #      #          
             '#######'   ##     ##  '#######'  #'      '#     '####' #    #          



                #########################################################
                #                        -***-                          #
                #          Department of theory and spectroscopy        #
                #                                                       #
                #                      Frank Neese                      #
                #                                                       #
                #     Directorship, Architecture, Infrastructure        #
                #                    SHARK, DRIVERS                     #
                #        Core code/Algorithms in most modules           #
                #                                                       #
                #        Max Planck Institute fuer Kohlenforschung      #
                #                Kaiser Wilhelm Platz 1                 #
                #                 D-45470 Muelheim/Ruhr                 #
                #                      Germany                          #
                #                                                       #
                #                  All rights reserved                  #
                #                        -***-                          #
                #########################################################


                         Program Version 6.1.0-f.0  -   RELEASE   -


 With contributions from (in alphabetic order):
[Max-Planck-Institut fuer Kohlenforschung]                               
  Daniel Aravena         : Magnetic Suceptibility                        
  Michael Atanasov       : Ab Initio Ligand Field Theory (pilot matlab implementation)
  Alexander A. Auer      : GIAO ZORA, VPT2 properties, NMR spectrum      
  Ute Becker             : All parallelization in ORCA, NUMFREQ, NUMCALC 
  Giovanni Bistoni       : ED, misc. LED, open-shell LED, HFLD           
  Dmytro Bykov           : pre 5.0 version of the SCF Hessian            
  Marcos Casanova-Páez   : Triplet and SCS-CIS(D). UHF-(DLPNO)-IP/EA/STEOM-CCSD. UHF-CVS-IP/STEOM-CCSD   
  Vijay G. Chilkuri      : MRCI spin determinant printing, contributions to CSF-ICE 
  Pauline Colinet        : FMM embedding                                 
  Dipayan Datta          : RHF DLPNO-CCSD density                        
  Achintya Kumar Dutta   : EOM-CC, STEOM-CC                              
  Nicolas Foglia         : Exact transition moments, OPA infrastructure, MCD improvements    
  Dmitry Ganyushin       : Spin-Orbit,Spin-Spin,Magnetic field MRCI      
  Miquel Garcia-Rates    : C-PCM and meta-GGA Hessian, CCSD/C-PCM, Gaussian charge scheme 
  Tiago L. C. Gouveia    : GS-ROHF, GS-ROCIS                             
  Yang Guo               : DLPNO-NEVPT2, F12-NEVPT2, CIM, IAO-localization        
  Andreas Hansen         : Spin unrestricted coupled pair/coupled cluster methods 
  Ingolf Harden          : AUTO-CI MPn and infrastructure                
  Benjamin Helmich-Paris : MC-RPA, TRAH-(SCF,CASSCF), AVAS, COSX integrals, SCF dyn. polar., MC-PDFT, srDFT 
  Lee Huntington         : MR-EOM, pCC                                   
  Robert Izsak           : Overlap fitted RIJCOSX, COSX-SCS-MP3, EOM     
  Riya Kayal             : Wick's Theorem for AUTO-CI, AUTO-CI UHF-CCSDT 
  Emily Kempfer          : AUTO-CI RHF CISDT and CCSDT, approximate NEVPT4
  Christian Kollmar      : KDIIS, OOCD, Brueckner-CCSD(T), CCSD density, CASPT2, CASPT2-K, improved NEVPT2 
  Axel Koslowski         : Symmetry handling                             
  Simone Kossmann        : meta-GGA functionals, TD-DFT gradient, OOMP2, (MP2 Hessian; deprecated post 5.0) 
  Lucas Lang             : DCDCAS, Hyperfine gauge corrections, ICE-SOC+SSC
  Marvin Lechner         : AUTO-CI (C++ implementation), FIC-MRCC        
  Spencer Leger          : CASSCF response                               
  Dagmar Lenk            : GEPOL surface, SMD, ORCA-2-JSON               
  Dimitrios Liakos       : Extrapolation schemes; Compound Job, Property file
  Dimitrios Manganas     : Further ROCIS development; embedding schemes. LFT, Crystal Embedding 
  Dimitrios Pantazis     : SARC Basis sets                               
  Anastasios Papadopoulos: AUTO-CI, single reference methods and gradients 
  Taras Petrenko         : pre 6.0 DFT Hessian and TD-DFT gradient,  ECA, NRVS 
  Petra Pikulova         : Analytic Raman intensities                    
  Peter Pinski           : DLPNO-MP2, DLPNO-MP2 Gradient                 
  Shashank Vittal Rao    : ES-AILFT, MagRelax                            
  Christoph Reimann      : Effective Core Potentials                     
  Marius Retegan         : Local ZFS, SOC                                
  Christoph Riplinger    : Optimizer, TS searches, QM/MM, DLPNO-CCSD(T), (RO)-DLPNO pert. Triples 
  Michael Roemelt        : Original ROCIS implementation, recursive CI coupling coefficients
  Masaaki Saitow         : Open-shell DLPNO-CCSD energy and density      
  Barbara Sandhoefer     : DKH picture change effects                    
  Yorick L. A. Schmerwitz: GMF and freeze-and-release deltaSCF, NEB S-IDPP initial path                    
  Kantharuban Sivalingam : CASSCF convergence/infrastructure, NEVPT2, NEVPT3, NEVPT4(SD), FIC-MRCI and CEPA variants
  Bernardo de Souza      : ESD, SOC TD-DFT                               
  Georgi L. Stoychev     : AutoAux, RI-MP2 NMR, DLPNO-MP2 response, X2C  
  Van Anh Tran           : RI-MP2 g-tensors                              
  Willem Van den Heuvel  : Paramagnetic NMR                              
  Zikuan Wang            : NOTCH, Electric field optimization            
  Frank Wennmohs         : Technical directorship and infrastructure     
  Hang Xu                : AUTO-CI-Response properties                   
                                                                         
[FACCTs GmbH]                                                            
  Markus Bursch, Nicolas Foglia, Miquel Garcia-Rates, Ingolf Harden, Hagen Neugebauer, Anastasios Papadopoulos, 
  Christoph Riplinger, Bernardo de Souza, Georgi L. Stoychev                                                    
                                                                 
  APM, various basis sets, CI-OPT, improved COSX, DLPNO-Multilevel,           
  DOCKER, DRACO, updates on ESD, Fragmentator, GOAT, IRC, LR-CPCM, L-BFGS, MBIS, meta-GGA TD-DFT gradient, ML-optimized integration grids, 
  MM, NACMEs, nearIR, NEB, NEB-TS, NL-DFT gradient (VV10), 2- and 3-layer-ONIOM, interface openCOSMO-RS, QMMM,   
  Crystal-QMMM, RESP, rigid body optimization, SF, symmetry and pop. for TD-DFT, various functionals, SOLVATOR                                   
                                                                         
[Other institutions]                                                     
  V. Asgeirsson          : NEB                                           
  Christoph Bannwarth    : sTDA-DFT, sTD-DFT, PBEh-3c, B97-3c, D3        
  Giovanni Bistoni       : ETS/NOCV, ADLD/ADEX, COVALED                  
  Martin Brehm           : Molecular dynamics                            
  Ronald Cardenas        : ETS/NOCV                                      
  Martina Colucci        : COVALED                                       
  Sebastian Ehlert       : rSCAN, r2SCAN, r2SCAN-3c, D4, dhf basis sets  
  Marvin Friede          : D4 for Fr, Ra, Ac-Lr                          
  Lars Goerigk           : TD-DFT with DH, B97 family of functionals     
  Stefan Grimme          : VdW corrections, initial TS optimization, DFT functionals, gCP, sTDA/sTD-DF 
  Waldemar Hujo          : DFT-NL                                        
  H. Jonsson             : NEB                                           
  Holger Kruse           : gCP                                           
  Marcel Mueller         : wB97X-3c, vDZP basis set                      
  Hagen Neugebauer       : wr2SCAN, Native XTB                           
  Gianluca Regni         : ADLD/ADEX                                     
  Tobias Risthaus        : pre 6.0 range-separated hybrid DFT and stability analysis
  Lukas Wittmann         : regularized MP2, r2SCAN double-hybrids, wr2SCAN        
                                                                         
We gratefully acknowledge several colleagues who have allowed us to      
interface, adapt or use parts of their codes:                            
  Ed Valeev, F. Pavosevic, A. Kumar             : LibInt (2-el integral package), F12 methods 
  Garnet Chan, S. Sharma, J. Yang, R. Olivares  : DMRG                   
  Ulf Ekstrom                                   : XCFun DFT Library      
  Mihaly Kallay                                 : mrcc  (arbitrary order and MRCC methods)
  Frank Weinhold                                : gennbo (NPA and NBO analysis)           
  Simon Mueller                                 : openCOSMO-RS                            
  Christopher J. Cramer and Donald G. Truhlar   : smd solvation model                     
  S Lehtola, MJT Oliveira, MAL Marques          : LibXC Library                           
  Liviu Ungur et al                             : ANISO software                          


 Your calculation uses the libint2 library for the computation of 2-el integrals
 For citations please refer to: http://libint.valeyev.net

 Your ORCA version has been built with support for libXC version: 7.0.0
 For citations please refer to: https://libxc.gitlab.io

 This ORCA versions uses:
   CBLAS   interface :  Fast vector & matrix operations
   LAPACKE interface :  Fast linear algebra routines
   SCALAPACK package :  Parallel linear algebra routines
   Shared memory     :  Shared parallel matrices
   BLAS/LAPACK       :  OpenBLAS 0.3.29  USE64BITINT DYNAMIC_ARCH NO_AFFINITY Zen SINGLE_THREADED
        Core in use  :  Zen
   Copyright (c) 2011-2014, The OpenBLAS Project


  ***********************************
  * Starting time: Thu Oct 16 17:26:38 2025
  * Host name:     mc087.hpc.nesi.org.nz
  * Process ID:    1575433
  * Working dir.:  /nesi/nobackup/nesi99999/geoffreyweal/ORCA_tutorial/NEB/Step2B_2_Optimise_Reactant_from_Product_with_constraints
  ***********************************

NOTE: MaxCore=2000 MB was set to SCF,MP2,MDCI,CIPSI,MRCI,RASCI and CIS
      => If you want to overwrite this, your respective input block should be placed after the MaxCore statement


***************************************
The coordinates will be read from file: reactant.xyz
***************************************


Your calculation utilizes the atom-pairwise dispersion correction
with the Becke-Johnson damping scheme (D3BJ)


Warning: RI is on but no J-basis has been assigned. Assigning Def2/J (nothing to worry about!)
================================================================================

----- Orbital basis set information -----
Your calculation utilizes the basis: def2-TZVP
   F. Weigend and R. Ahlrichs, Phys. Chem. Chem. Phys. 7, 3297 (2005).

----- AuxJ basis set information -----
Your calculation utilizes the auxiliary basis: def2/J
   H-Rn: F. Weigend, Phys. Chem. Chem. Phys. 8, 1057 (2006).
   Fr-Lr: K. Eichkorn, F. Weigend, O. Treutler, R. Ahlrichs; Theor. Chem. Acc. 97, 119 (1997).

================================================================================
                                        WARNINGS
                       Please study these warnings very carefully!
================================================================================


WARNING: Geometry Optimization
  ===> : Switching off AutoStart
         For restart on a previous wavefunction, please use MOREAD

================================================================================
                                       INPUT FILE
================================================================================
NAME = orca.inp
|  1> !B3LYP DEF2-TZVP D3BJ 
|  2> !OPT FREQ TightOPT TightSCF defgrid2
|  3> %SCF
|  4>     MaxIter 2000       # Here setting MaxIter to a very high number. Intended for systems that require sometimes 1000 iterations before converging (very rare).
|  5>     DIISMaxEq 5        # Default value is 5. A value of 15-40 necessary for difficult systems.
|  6>     directresetfreq 15 # Default value is 15. A value of 1 (very expensive) is sometimes required. A value between 1 and 15 may be more cost-effective.
|  7> END
|  8> %CPCM EPSILON 6.02 REFRAC 1.3723 END
|  9> %PAL NPROCS 32 END
| 10> %maxcore 2000 # This indicates you want ORCA to use only 2GB per core maximum, so ORCA will use only 2GB*32=64GB of memory in total.
| 11> %GEOM
| 12>     Constraints
| 13>         {C 0 C}
| 14>         {C 1 C}
| 15>         {C 2 C}
| 16>         {C 3 C}
| 17>         {C 4 C}
| 18>         {C 5 C}
| 19>     END
| 20> END
| 21> * xyzfile 1 1 reactant.xyz 
| 22> 
| 23>                          ****END OF INPUT****
================================================================================

                       *****************************
                       * Geometry Optimization Run *
                       *****************************

Geometry optimization settings:
Update method            Update   .... BFGS
Choice of coordinates    CoordSys .... (2022) Redundant Internals
Initial Hessian          InHess   .... Almloef's Model
Max. no of cycles        MaxIter  .... 54

Convergence Tolerances:
Energy Change            TolE     ....  1.0000e-06 Eh
Max. Gradient            TolMAXG  ....  1.0000e-04 Eh/bohr
RMS Gradient             TolRMSG  ....  3.0000e-05 Eh/bohr
Max. Displacement        TolMAXD  ....  1.0000e-03 bohr
RMS Displacement         TolRMSD  ....  6.0000e-04 bohr
Strict Convergence                .... False

------------------------------------------------------------------------------
                        ORCA OPTIMIZATION COORDINATE SETUP
------------------------------------------------------------------------------

The optimization will be done in redundant internal coordinates (2022)
Making redundant internal coordinates   ...  (2022 redundants) done
Evaluating the initial hessian          ...  (Almloef) done
Evaluating the coordinates              ...  done
Calculating the B-matrix                .... done
Calculating the G-matrix                .... done
Will constrain atom 0 coordinate 1 
Will constrain atom 0 coordinate 2 
Will constrain atom 0 coordinate 3 
Will constrain atom 1 coordinate 1 
Will constrain atom 1 coordinate 2 
Will constrain atom 1 coordinate 3 
Will constrain atom 2 coordinate 1 
Will constrain atom 2 coordinate 2 
Will constrain atom 2 coordinate 3 
Will constrain atom 3 coordinate 1 
Will constrain atom 3 coordinate 2 
Will constrain atom 3 coordinate 3 
Will constrain atom 4 coordinate 1 
Will constrain atom 4 coordinate 2 
Will constrain atom 4 coordinate 3 
Will constrain atom 5 coordinate 1 
Will constrain atom 5 coordinate 2 
Will constrain atom 5 coordinate 3 
The number of degrees of freedom        ....  101
Storing new coordinates                 .... done

    -----------------------------------------------------------------
                    Redundant Internal Coordinates


    -----------------------------------------------------------------
         Definition                    Initial Value    Approx d2E/dq
    -----------------------------------------------------------------
      1. B(C   1,C   0)                  1.3829         0.641308   
      2. B(C   2,C   1)                  1.4072         0.586616   
      3. B(C   3,C   2)                  1.4078         0.585202   
      4. B(C   4,C   3)                  1.3800         0.648253   
      5. B(C   5,C   0)                  1.3923         0.619555   
      6. B(C   5,C   4)                  1.3973         0.608261   
      7. B(H   6,C   0)                  1.0814         0.371632   
      8. B(H   7,C   5)                  1.0822         0.370514   
      9. B(H   8,C   1)                  1.0825         0.370217   
     10. B(H   9,C   3)                  1.0820         0.370861   
     11. B(H  10,C   4)                  1.0815         0.371515   
     12. B(C  11,C   2)                  1.4318         0.535886   
     13. B(N  12,C  11)                  1.3524         0.642395   
     14. B(H  13,N  12)                  1.0147         0.425365   
     15. B(H  14,N  12)                  1.0151         0.424713   
     16. B(H  15,C  11)                  1.0837         0.368584   
     17. B(H  16,C  11)                  1.3735         0.127073   
     18. B(Cu 17,N  12)                  2.1921         0.297413   
     19. A(C   5,C   0,H   6)          120.2365         0.354755   
     20. A(C   1,C   0,H   6)          120.0419         0.356839   
     21. A(C   1,C   0,C   5)          119.7216         0.436659   
     22. A(C   2,C   1,H   8)          119.4002         0.351263   
     23. A(C   0,C   1,C   2)          120.1297         0.432386   
     24. A(C   0,C   1,H   8)          120.4700         0.356608   
     25. A(C   1,C   2,C   3)          119.7004         0.425344   
     26. A(C   1,C   2,C  11)          116.7765         0.418708   
     27. A(C   3,C   2,C  11)          123.5228         0.418528   
     28. A(C   4,C   3,H   9)          119.2024         0.357367   
     29. A(C   2,C   3,H   9)          121.0915         0.351223   
     30. A(C   2,C   3,C   4)          119.7060         0.433037   
     31. A(C   3,C   4,C   5)          120.1526         0.436059   
     32. A(C   3,C   4,H  10)          119.8711         0.357474   
     33. A(C   5,C   4,H  10)          119.9763         0.353632   
     34. A(C   0,C   5,H   7)          119.8168         0.354574   
     35. A(C   4,C   5,H   7)          119.5942         0.353471   
     36. A(C   0,C   5,C   4)          120.5890         0.432520   
     37. A(C   2,C  11,N  12)          125.7587         0.422788   
     38. A(C   2,C  11,H  15)          118.2494         0.345691   
     39. A(N  12,C  11,H  15)          115.0529         0.354242   
     40. A(C   2,C  11,H  16)          120.8795         0.290713   
     41. A(N  12,C  11,H  16)           93.9149         0.297433   
     42. A(H  15,C  11,H  16)           59.7036         0.249290   
     43. A(C  11,N  12,H  13)          120.7220         0.359792   
     44. A(C  11,N  12,H  14)          118.3746         0.359698   
     45. A(H  13,N  12,H  14)          114.8070         0.301530   
     46. A(C  11,N  12,Cu 17)          108.4432         0.424435   
     47. A(H  13,N  12,Cu 17)          102.0080         0.352356   
     48. A(H  14,N  12,Cu 17)           82.9687         0.352264   
     49. D(C   2,C   1,C   0,C   5)     -0.0338         0.028583   
     50. D(C   2,C   1,C   0,H   6)    179.9584         0.028583   
     51. D(H   8,C   1,C   0,C   5)    179.8135         0.028583   
     52. D(H   8,C   1,C   0,H   6)     -0.1943         0.028583   
     53. D(C  11,C   2,C   1,H   8)      0.4848         0.023668   
     54. D(C  11,C   2,C   1,C   0)   -179.6663         0.023668   
     55. D(C   3,C   2,C   1,H   8)   -179.7139         0.023668   
     56. D(C   3,C   2,C   1,C   0)      0.1351         0.023668   
     57. D(C   4,C   3,C   2,C   1)     -0.2858         0.023548   
     58. D(C   4,C   3,C   2,C  11)    179.5015         0.023548   
     59. D(H   9,C   3,C   2,C   1)    179.5595         0.023548   
     60. D(H   9,C   3,C   2,C  11)     -0.6532         0.023548   
     61. D(C   5,C   4,C   3,C   2)      0.3349         0.029248   
     62. D(C   5,C   4,C   3,H   9)   -179.5134         0.029248   
     63. D(H  10,C   4,C   3,C   2)   -179.7888         0.029248   
     64. D(H  10,C   4,C   3,H   9)      0.3630         0.029248   
     65. D(C   4,C   5,C   0,C   1)      0.0822         0.026559   
     66. D(H   7,C   5,C   4,C   3)    179.7757         0.025544   
     67. D(H   7,C   5,C   0,C   1)   -179.9288         0.026559   
     68. D(H   7,C   5,C   0,H   6)      0.0791         0.026559   
     69. D(C   0,C   5,C   4,C   3)     -0.2352         0.025544   
     70. D(C   4,C   5,C   0,H   6)   -179.9100         0.026559   
     71. D(C   0,C   5,C   4,H  10)    179.8885         0.025544   
     72. D(H   7,C   5,C   4,H  10)     -0.1005         0.025544   
     73. D(N  12,C  11,C   2,C   1)    176.3272         0.021277   
     74. D(N  12,C  11,C   2,C   3)     -3.4658         0.021277   
     75. D(H  15,C  11,C   2,C   1)      8.0024         0.021277   
     76. D(H  15,C  11,C   2,C   3)   -171.7906         0.021277   
     77. D(H  16,C  11,C   2,C   1)    -61.7573         0.021277   
     78. D(H  13,N  12,C  11,C   2)     -6.3187         0.039332   
     79. D(H  13,N  12,C  11,H  15)    162.3330         0.039332   
     80. D(H  13,N  12,C  11,H  16)   -139.4147         0.039332   
     81. D(H  14,N  12,C  11,C   2)   -157.4448         0.039332   
     82. D(H  14,N  12,C  11,H  15)     11.2068         0.039332   
     83. D(H  14,N  12,C  11,H  16)     69.4592         0.039332   
     84. C_Y(C   0)                      1.8193         1.000000 C 
     85. C_X(C   0)                     -2.9886         1.000000 C 
     86. C_Z(C   0)                      1.6054         1.000000 C 
     87. C_Y(C   1)                      2.6663         1.000000 C 
     88. C_Z(C   1)                      1.5044         1.000000 C 
     89. C_X(C   1)                     -1.9001         1.000000 C 
     90. C_Z(C   2)                      2.2356         1.000000 C 
     91. C_Y(C   2)                      2.4001         1.000000 C 
     92. C_X(C   2)                     -0.7277         1.000000 C 
     93. C_X(C   3)                     -0.6671         1.000000 C 
     94. C_Z(C   3)                      3.0679         1.000000 C 
     95. C_Y(C   3)                      1.2663         1.000000 C 
     96. C_Z(C   4)                      3.1640         1.000000 C 
     97. C_Y(C   4)                      0.4293         1.000000 C 
     98. C_X(C   4)                     -1.7600         1.000000 C 
     99. C_Z(C   5)                      2.4330         1.000000 C 
    100. C_Y(C   5)                      0.7019         1.000000 C 
    101. C_X(C   5)                     -2.9192         1.000000 C 
    -----------------------------------------------------------------

Number of atoms                         .... 18
Number of degrees of freedom            .... 83


         *************************************************************
         *                GEOMETRY OPTIMIZATION CYCLE   1            *
         *************************************************************
---------------------------------
CARTESIAN COORDINATES (ANGSTROEM)
---------------------------------
  C     -2.988620    1.819329    1.605387
  C     -1.900138    2.666334    1.504382
  C     -0.727727    2.400106    2.235605
  C     -0.667116    1.266306    3.067942
  C     -1.760024    0.429263    3.163972
  C     -2.919247    0.701852    2.432981
  H     -3.889160    2.025652    1.043314
  H     -3.769756    0.037331    2.512291
  H     -1.939782    3.536898    0.862308
  H      0.225406    1.036279    3.634672
  H     -1.717588   -0.440597    3.805218
  C      0.352256    3.327667    2.083026
  N      1.528708    3.287384    2.748929
  H      1.679487    2.616131    3.494728
  H      2.065013    4.145101    2.833067
  H      0.169645    4.240862    1.528906
  H      0.943865    3.525711    0.859348
  Cu     3.111429    2.754611    1.328968

----------------------------
CARTESIAN COORDINATES (A.U.)
----------------------------
  NO LB      ZA    FRAG     MASS         X           Y           Z
   0 C     6.0000    0    12.011   -5.647672    3.438033    3.033742
   1 C     6.0000    0    12.011   -3.590740    5.038640    2.842870
   2 C     6.0000    0    12.011   -1.375204    4.535544    4.224682
   3 C     6.0000    0    12.011   -1.260666    2.392972    5.797570
   4 C     6.0000    0    12.011   -3.325963    0.811190    5.979041
   5 C     6.0000    0    12.011   -5.516578    1.326308    4.597668
   6 H     1.0000    0     1.008   -7.349447    3.827928    1.971578
   7 H     1.0000    0     1.008   -7.123806    0.070546    4.747543
   8 H     1.0000    0     1.008   -3.665657    6.683769    1.629526
   9 H     1.0000    0     1.008    0.425955    1.958284    6.868535
  10 H     1.0000    0     1.008   -3.245770   -0.832607    7.190820
  11 C     6.0000    0    12.011    0.665667    6.288379    3.936349
  12 N     7.0000    0    14.007    2.888840    6.212256    5.194722
  13 H     1.0000    0     1.008    3.173771    4.943771    6.604080
  14 H     1.0000    0     1.008    3.902310    7.833106    5.353721
  15 H     1.0000    0     1.008    0.320583    8.014068    2.889213
  16 H     1.0000    0     1.008    1.783646    6.662629    1.623933
  17 Cu   29.0000    0    63.550    5.879748    5.205460    2.511386

--------------------------------
INTERNAL COORDINATES (ANGSTROEM)
--------------------------------
 C      0   0   0     0.000000000000     0.00000000     0.00000000
 C      1   0   0     1.382899556467     0.00000000     0.00000000
 C      2   1   0     1.407164388784   120.12969006     0.00000000
 C      3   2   1     1.407821502215   119.70037199     0.13505543
 C      4   3   2     1.379967585363   119.70596944   359.71421786
 C      1   2   3     1.392293036354   119.72164303   359.96619290
 H      1   2   3     1.081419404149   120.04186157   179.95837060
 H      6   1   2     1.082239746105   119.81680597   180.07124783
 H      2   1   3     1.082457377074   120.46995361   179.84731009
 H      4   3   2     1.081984405853   121.09149968   179.55952373
 H      5   4   3     1.081505010831   119.87105006   180.21124159
 C      3   2   1     1.431785592086   116.77652771   180.33370575
 N     12   3   2     1.352438632995   125.75870343   176.32719938
 H     13  12   3     1.014659001452   120.72204849   353.68133078
 H     13  12   3     1.015076634670   118.37458087   202.55519441
 H     12   3   2     1.083661416001   118.24942608     8.00239053
 H     16  12   3     1.248664870212    71.76397396   248.84735908
 Cu    13  12   3     2.192062557518   108.44317466   110.63717361

---------------------------
INTERNAL COORDINATES (A.U.)
---------------------------
 C      0   0   0     0.000000000000     0.00000000     0.00000000
 C      1   0   0     2.613301432443     0.00000000     0.00000000
 C      2   1   0     2.659155320208   120.12969006     0.00000000
 C      3   2   1     2.660397084632   119.70037199     0.13505543
 C      4   3   2     2.607760810025   119.70596944   359.71421786
 C      1   2   3     2.631052536875   119.72164303   359.96619290
 H      1   2   3     2.043586509751   120.04186157   179.95837060
 H      6   1   2     2.045136731383   119.81680597   180.07124783
 H      2   1   3     2.045547994312   120.46995361   179.84731009
 H      4   3   2     2.044654208236   121.09149968   179.55952373
 H      5   4   3     2.043748282934   119.87105006   180.21124159
 C      3   2   1     2.705682651537   116.77652771   180.33370575
 N     12   3   2     2.555738629295   125.75870343   176.32719938
 H     13  12   3     1.917427632062   120.72204849   353.68133078
 H     13  12   3     1.918216844469   118.37458087   202.55519441
 H     12   3   2     2.047823298140   118.24942608     8.00239053
 H     16  12   3     2.359634637749    71.76397396   248.84735908
 Cu    13  12   3     4.142397902133   108.44317466   110.63717361

---------------------
BASIS SET INFORMATION
---------------------
There are 4 groups of distinct atoms

 Group   1 Type C   : 11s6p2d1f contracted to 5s3p2d1f pattern {62111/411/11/1}
 Group   2 Type H   : 5s1p contracted to 3s1p pattern {311/1}
 Group   3 Type N   : 11s6p2d1f contracted to 5s3p2d1f pattern {62111/411/11/1}
 Group   4 Type Cu  : 17s11p7d1f contracted to 6s4p4d1f pattern {842111/6311/4111/1}

Atom   0C    basis set group =>   1
Atom   1C    basis set group =>   1
Atom   2C    basis set group =>   1
Atom   3C    basis set group =>   1
Atom   4C    basis set group =>   1
Atom   5C    basis set group =>   1
Atom   6H    basis set group =>   2
Atom   7H    basis set group =>   2
Atom   8H    basis set group =>   2
Atom   9H    basis set group =>   2
Atom  10H    basis set group =>   2
Atom  11C    basis set group =>   1
Atom  12N    basis set group =>   3
Atom  13H    basis set group =>   2
Atom  14H    basis set group =>   2
Atom  15H    basis set group =>   2
Atom  16H    basis set group =>   2
Atom  17Cu   basis set group =>   4
---------------------------------
AUXILIARY/J BASIS SET INFORMATION
---------------------------------
There are 4 groups of distinct atoms

 Group   1 Type C   : 12s5p4d2f1g contracted to 6s4p3d1f1g pattern {711111/2111/211/2/1}
 Group   2 Type H   : 5s2p1d contracted to 3s1p1d pattern {311/2/1}
 Group   3 Type N   : 12s5p4d2f1g contracted to 6s4p3d1f1g pattern {711111/2111/211/2/1}
 Group   4 Type Cu  : 19s5p5d3f3g contracted to 8s5p4d3f3g pattern {121111111/11111/2111/111/111}

Atom   0C    basis set group =>   1
Atom   1C    basis set group =>   1
Atom   2C    basis set group =>   1
Atom   3C    basis set group =>   1
Atom   4C    basis set group =>   1
Atom   5C    basis set group =>   1
Atom   6H    basis set group =>   2
Atom   7H    basis set group =>   2
Atom   8H    basis set group =>   2
Atom   9H    basis set group =>   2
Atom  10H    basis set group =>   2
Atom  11C    basis set group =>   1
Atom  12N    basis set group =>   3
Atom  13H    basis set group =>   2
Atom  14H    basis set group =>   2
Atom  15H    basis set group =>   2
Atom  16H    basis set group =>   2
Atom  17Cu   basis set group =>   4


           ************************************************************
           *        Program running with 32 parallel MPI-processes    *
           *              working on a common directory               *
           ************************************************************
------------------------------------------------------------------------------
                             ORCA STARTUP CALCULATIONS
                           -- RI-GTO INTEGRALS CHOSEN --
------------------------------------------------------------------------------
------------------------------------------------------------------------------
                   ___                                                        
                  /   \      - P O W E R E D   B Y -                         
                 /     \                                                     
                 |  |  |   _    _      __       _____    __    __             
                 |  |  |  | |  | |    /  \     |  _  \  |  |  /  |          
                  \  \/   | |  | |   /    \    | | | |  |  | /  /          
                 / \  \   | |__| |  /  /\  \   | |_| |  |  |/  /          
                |  |  |   |  __  | /  /__\  \  |    /   |      \           
                |  |  |   | |  | | |   __   |  |    \   |  |\   \          
                \     /   | |  | | |  |  |  |  | |\  \  |  | \   \       
                 \___/    |_|  |_| |__|  |__|  |_| \__\ |__|  \__/        
                                                                              
                      - O R C A' S   B I G   F R I E N D -                    
                                      &                                       
                       - I N T E G R A L  F E E D E R -                       
                                                                              
 v1 FN, 2020, v2 2021, v3 2022-2024                                           
------------------------------------------------------------------------------


----------------------
SHARK INTEGRAL PACKAGE
----------------------

Number of atoms                             ...     18
Number of basis functions                   ...    347
Number of shells                            ...    139
Maximum angular momentum                    ...      3
Integral batch strategy                     ... SHARK/LIBINT Hybrid
RI-J (if used) integral strategy            ... SPLIT-RIJ (Revised 2003 algorithm where possible)
Printlevel                                  ...      1
Contraction scheme used                     ... SEGMENTED contraction
Prescreening option                         ... SCHWARTZ
   Thresh                                   ... 2.500e-11
   Tcut                                     ... 2.500e-12
   Tpresel                                  ... 2.500e-12 
Coulomb Range Separation                    ... NOT USED
Exchange Range Separation                   ... NOT USED
Multipole approximations                    ... NOT USED
Finite Nucleus Model                        ... NOT USED
CABS basis                                  ... NOT available
Auxiliary Coulomb fitting basis             ... AVAILABLE
   # of basis functions in Aux-J            ...    582
   # of shells in Aux-J                     ...    188
   Maximum angular momentum in Aux-J        ...      4
Auxiliary J/K fitting basis                 ... NOT available
Auxiliary Correlation fitting basis         ... NOT available
Auxiliary 'external' fitting basis          ... NOT available

Checking pre-screening integrals            ... done (  0.6 sec) Dimension = 139
   => SHARK Basis and OBASIS are compatible. Storing Pre-screening
Shell pair information
Shell pair cut-off parameter TPreSel        ...   2.5e-12
Total number of shell pairs                 ...      9730
Shell pairs after pre-screening             ...      8453
Total number of primitive shell pairs       ...     31637
Primitive shell pairs kept                  ...     19714
          la=0 lb=0:   2281 shell pairs
          la=1 lb=0:   2359 shell pairs
          la=1 lb=1:    633 shell pairs
          la=2 lb=0:   1280 shell pairs
          la=2 lb=1:    667 shell pairs
          la=2 lb=2:    190 shell pairs
          la=3 lb=0:    558 shell pairs
          la=3 lb=1:    291 shell pairs
          la=3 lb=2:    156 shell pairs
          la=3 lb=3:     38 shell pairs

Checking whether 4 symmetric matrices of dimension 347 fit in memory
:Max Core in MB      =   2000.00
 MB in use           =     14.10
 MB left             =   1985.90
 MB needed           =      1.84
 Data fit in memory  = YES
Calculating RI/J V-Matrix + Cholesky decomp.... done (  1.5 sec)
Calculating Nuclear repulsion               ... done (  0.0 sec) ENN=    568.220687247720 Eh

Diagonalization of the overlap matrix:
Smallest eigenvalue                        ... 8.822e-06
Time for diagonalization                   ...    0.081 sec
Threshold for overlap eigenvalues          ... 1.000e-07
Number of eigenvalues below threshold      ... 0
Time for construction of square roots      ...    0.172 sec
Total time needed                          ...    0.734 sec

-------------------
DFT GRID GENERATION
-------------------

General Integration Accuracy     IntAcc      ... 4.388
Radial Grid Type                 RadialGrid  ... OptM3 with GC (2021)
Angular Grid (max. ang.)         AngularGrid ... 4 (Lebedev-302)
Angular grid pruning method      GridPruning ... 4 (adaptive)
Weight generation scheme         WeightScheme... mBecke (2022)
Basis function cutoff            BFCut       ... 1.0000e-11
Integration weight cutoff        WCut        ... 1.0000e-14
Partially contracted basis set               ... off
Rotationally invariant grid construction     ... off
Angular grids for H and He will be reduced by one unit
Core-polarized basis detected: some atoms will have their core
                               angular grid increased.

Total number of grid points                  ...    88160
Total number of batches                      ...     1386
Average number of points per batch           ...       63
Average number of grid points per atom       ...     4898

--------------------
COSX GRID GENERATION
--------------------

GRIDX 1
-------
General Integration Accuracy     IntAcc      ... 3.816
Radial Grid Type                 RadialGrid  ... OptM3 with GC (2021)
Angular Grid (max. ang.)         AngularGrid ... 1 (Lebedev-50)
Angular grid pruning method      GridPruning ... 4 (adaptive)
Weight generation scheme         WeightScheme... mBecke (2022)
Basis function cutoff            BFCut       ... 1.0000e-11
Integration weight cutoff        WCut        ... 1.0000e-14
Partially contracted basis set               ... on
Rotationally invariant grid construction     ... off
Angular grids for H and He will be reduced by one unit
Core-polarized basis detected: some atoms will have their core
                               angular grid increased.

Total number of grid points                  ...    15807
Total number of batches                      ...      132
Average number of points per batch           ...      119
Average number of grid points per atom       ...      878
UseSFitting                                  ... on

GRIDX 2
-------
General Integration Accuracy     IntAcc      ... 4.020
Radial Grid Type                 RadialGrid  ... OptM3 with GC (2021)
Angular Grid (max. ang.)         AngularGrid ... 2 (Lebedev-110)
Angular grid pruning method      GridPruning ... 4 (adaptive)
Weight generation scheme         WeightScheme... mBecke (2022)
Basis function cutoff            BFCut       ... 1.0000e-11
Integration weight cutoff        WCut        ... 1.0000e-14
Partially contracted basis set               ... on
Rotationally invariant grid construction     ... off
Angular grids for H and He will be reduced by one unit
Core-polarized basis detected: some atoms will have their core
                               angular grid increased.

Total number of grid points                  ...    27132
Total number of batches                      ...      220
Average number of points per batch           ...      123
Average number of grid points per atom       ...     1507
UseSFitting                                  ... on

GRIDX 3
-------
General Integration Accuracy     IntAcc      ... 4.338
Radial Grid Type                 RadialGrid  ... OptM3 with GC (2021)
Angular Grid (max. ang.)         AngularGrid ... 3 (Lebedev-194)
Angular grid pruning method      GridPruning ... 4 (adaptive)
Weight generation scheme         WeightScheme... mBecke (2022)
Basis function cutoff            BFCut       ... 1.0000e-11
Integration weight cutoff        WCut        ... 1.0000e-14
Partially contracted basis set               ... on
Rotationally invariant grid construction     ... off
Angular grids for H and He will be reduced by one unit
Core-polarized basis detected: some atoms will have their core
                               angular grid increased.

Total number of grid points                  ...    52359
Total number of batches                      ...      418
Average number of points per batch           ...      125
Average number of grid points per atom       ...     2909
UseSFitting                                  ... on
Grids setup in  38.0 sec
Initializing property integral containers    ... done (  0.6 sec)

SHARK setup successfully completed in  44.8 seconds

Maximum memory used throughout the entire STARTUP-calculation: 33.9 MB


           ************************************************************
           *        Program running with 32 parallel MPI-processes    *
           *              working on a common directory               *
           ************************************************************
-------------------------------------------------------------------------------
                                 ORCA GUESS
                   Start orbitals & Density for SCF / CASSCF
-------------------------------------------------------------------------------

------------
SCF SETTINGS
------------
Hamiltonian:
 Density Functional     Method          .... DFT(GTOs)
 Exchange Functional    Exchange        .... B88
   X-Alpha parameter    XAlpha          ....  0.666667
   Becke's b parameter  XBeta           ....  0.004200
 Correlation Functional Correlation     .... LYP
 LDA part of GGA corr.  LDAOpt          .... VWN-5
 Gradients option       PostSCFGGA      .... off
 Hybrid DFT is turned on
   Fraction HF Exchange ScalHFX         ....  0.200000
   Scaling of DF-GGA-X  ScalDFX         ....  0.720000
   Scaling of DF-GGA-C  ScalDFC         ....  0.810000
   Scaling of DF-LDA-C  ScalLDAC        ....  1.000000
   Perturbative correction              ....  0.000000
   NL short-range parameter             ....  4.800000
 RI-approximation to the Coulomb term is turned on
   Number of AuxJ basis functions       .... 582
   RIJ-COSX (HFX calculated with COS-X)).... on


General Settings:
 Integral files         IntName         .... orca
 Hartree-Fock type      HFTyp           .... RHF
 Total Charge           Charge          ....    1
 Multiplicity           Mult            ....    1
 Number of Electrons    NEL             ....   86
 Basis Dimension        Dim             ....  347
 Nuclear Repulsion      ENuc            ....    568.2206872477 Eh

Convergence Acceleration:
 AO-DIIS                CNVDIIS         .... on
   Start iteration      DIISMaxIt       ....    12
   Startup error        DIISStart       ....  0.200000
   # of expansion vecs  DIISMaxEq       ....     5
   Bias factor          DIISBfac        ....   1.050
   Max. coefficient     DIISMaxC        ....  10.000
 MO-DIIS                CNVKDIIS        .... off
 Trust-Rad. Augm. Hess. CNVTRAH         .... auto
   Auto Start mean grad. ratio tolernc. ....  1.125000
   Auto Start start iteration           ....    50
   Auto Start num. interpolation iter.  ....    10
   Max. Number of Micro iterations      ....    24
   Max. Number of Macro iterations      .... Maxiter - #DIIS iter
   Number of Davidson start vectors     ....     2
   Converg. threshold    (grad. norm)   ....   1.000e-05
   Grad. Scal. Fac. for Micro threshold ....   0.100
   Minimum threshold for Micro iter.    ....   1.000e-02
   NR start threshold (gradient norm)   ....   1.000e-04
   Initial trust radius                 ....   0.400
   Minimum AH scaling param. (alpha)    ....   1.000
   Maximum AH scaling param. (alpha)    .... 1000.000
   Quad. conv. algorithm                .... NR
   White noise on init. David. guess    .... on
   Maximum white noise                  ....   0.010
   Pseudo random numbers                .... off
   Inactive MOs                         .... canonical
   Orbital update algorithm             .... Taylor
   Preconditioner                       .... Diag
   Full preconditioner red. dimension   ....   250
 SOSCF                 CNVSOSCF           .... on
   Start iteration     SOSCFMaxIt         ....   150
   Startup grad/error  SOSCFStart         ....  0.003300
   Hessian update      SOSCFHessUp        .... L-BFGS
   Autom. constraints  SOSCFAutoConstrain .... off
 Level Shifting         CNVShift        .... on
   Level shift para.    LevelShift      ....    0.2500
   Turn off err/grad.   ShiftErr        ....    0.0010
 Zerner damping         CNVZerner       .... off
 Static damping         CNVDamp         .... on
   Fraction old density DampFac         ....    0.7000
   Max. Damping (<1)    DampMax         ....    0.9800
   Min. Damping (>=0)   DampMin         ....    0.0000
   Turn off err/grad.   DampErr         ....    0.1000

SCF Procedure:
 Maximum # iterations   MaxIter         ....  2000
 SCF integral mode      SCFMode         .... Direct
   Integral package                     .... SHARK and LIBINT hybrid scheme
 Reset frequency        DirectResetFreq ....    15
 Integral Threshold     Thresh          ....  2.500e-11 Eh
 Primitive CutOff       TCut            ....  2.500e-12 Eh

Convergence Tolerance:
 Convergence Check Mode ConvCheckMode   .... Total+1el-Energy
 Convergence forced     ConvForced      .... 0
 Energy Change          TolE            ....  1.000e-08 Eh
 1-El. energy change                    ....  1.000e-05 Eh
 Orbital Gradient       TolG            ....  1.000e-05
 Orbital Rotation angle TolX            ....  1.000e-05
 DIIS Error             TolErr          ....  5.000e-07

------------------------------
INITIAL GUESS: MODEL POTENTIAL
------------------------------
Loading Hartree-Fock densities                     ... done
Calculating cut-offs                               ... done
Initializing the effective Hamiltonian             ... done
Setting up the integral package (SHARK)            ... done
Starting the Coulomb interaction                   ... done (   1.6 sec)
Making the grid                                    ... done (  11.8 sec)
Mapping shells                                     ... done
Starting the XC term evaluation                    ... done (   0.2 sec)
  promolecular density results
     # of electrons  =     86.987007823
     EX              =   -111.073135324
     EC              =     -3.302604718
     EX+EC           =   -114.375740041
Transforming the Hamiltonian                       ... done (   1.7 sec)
Diagonalizing the Hamiltonian                      ... done (   1.0 sec)
Back transforming the eigenvectors                 ... done (   0.7 sec)
Now organizing SCF variables                       ... done
                      ------------------
                      INITIAL GUESS DONE (  19.5 sec)
                      ------------------
             **** ENERGY FILE WAS UPDATED (orca.en.tmp) ****
Finished Guess after  24.2 sec
Maximum memory used throughout the entire GUESS-calculation: 19.5 MB


           ************************************************************
           *        Program running with 32 parallel MPI-processes    *
           *              working on a common directory               *
           ************************************************************

-------------------------------------------------------------------------------------------
                                      ORCA LEAN-SCF
                              memory conserving SCF solver
-------------------------------------------------------------------------------------------

--------------------
CPCM SOLVATION MODEL
--------------------
CPCM parameters:
  Epsilon                                         ...       6.0200
  Refrac                                          ...       1.3723
  Rsolv                                           ...       1.3000
  Surface type                                    ... GAUSSIAN VDW
  Discretization scheme                           ... Constant charge density
    Threshold for H atoms                         ...       5.0000 (charges/Ang^2)
    Threshold for non-H atoms                     ...       5.0000 (charges/Ang^2)
  Epsilon function type                           ...         CPCM
Solvent:                                          ... CUSTOM
Radii:
  Scheme                                          ... Element-dependent radii
  Radius for C  used is    3.8550 Bohr (=   2.0400 Ang.)
  Radius for H  used is    2.4944 Bohr (=   1.3200 Ang.)
  Radius for N  used is    3.5149 Bohr (=   1.8600 Ang.)
  Radius for Cu used is    3.1747 Bohr (=   1.6800 Ang.)
Calculating surface                               ...        done! (  0.0s)
Cavity surface points                             ...         1679
Cavity Volume                                     ...    1097.6395
Cavity Surface-area                               ...     633.6249
Calculating surface distance matrix               ...        done! (  0.4s)
Performing Cholesky decomposition & store         ...        done! (  2.5s)
Overall time for CPCM initialization              ...                 2.9s

----------------------------------------D-I-I-S--------------------------------------------
Iteration    Energy (Eh)           Delta-E    RMSDP     MaxDP     DIISErr   Damp  Time(sec)
-------------------------------------------------------------------------------------------
               ***  Starting incremental Fock matrix formation  ***
    1    -1966.7681143496574805     0.00e+00  7.97e-03  4.23e-02  2.46e-01  0.700  37.5
Warning: op=0 Small HOMO/LUMO gap (   0.064) - skipping pre-diagonalization
         Will do a full diagonalization
    2    -1966.8913935786044931    -1.23e-01  6.07e-03  6.52e-02  1.08e-01  0.700  43.6
                               ***Turning on AO-DIIS***
    3    -1966.9408608673779781    -4.95e-02  2.77e-03  3.70e-02  2.91e-02  0.700  41.7
    4    -1966.9695182894342906    -2.87e-02  5.14e-03  6.57e-02  1.53e-02  0.000  44.4
    5    -1967.0329293438862805    -6.34e-02  1.23e-03  8.58e-03  1.54e-02  0.000  40.8
    6    -1967.0334994047329928    -5.70e-04  6.40e-04  4.65e-03  1.50e-02  0.000  40.7
                              *** Initializing SOSCF ***
---------------------------------------S-O-S-C-F--------------------------------------
Iteration    Energy (Eh)           Delta-E    RMSDP     MaxDP     MaxGrad    Time(sec)
--------------------------------------------------------------------------------------
    7    -1967.0337288540863483    -2.29e-04  3.30e-04  2.38e-03  2.71e-03    45.9
               *** Restarting incremental Fock matrix formation ***
    8    -1967.0337499375546031    -2.11e-05  3.46e-04  3.44e-03  5.11e-04    37.2
    9    -1967.0337652493426503    -1.53e-05  2.74e-04  3.31e-03  2.15e-04    37.9
   10    -1967.0337645599288408     6.89e-07  1.27e-04  1.31e-03  2.62e-04    35.9
   11    -1967.0337682459557982    -3.69e-06  4.12e-05  4.88e-04  1.08e-04    37.2
   12    -1967.0337677863085446     4.60e-07  2.51e-05  2.14e-04  2.41e-04    37.6
   13    -1967.0337683658895003    -5.80e-07  6.92e-06  5.64e-05  1.49e-05    41.3
   14    -1967.0337683513830598     1.45e-08  4.30e-06  3.97e-05  2.44e-05    43.1
   15    -1967.0337683695247506    -1.81e-08  4.96e-06  2.92e-05  1.56e-06    40.0
                  *** Gradient check signals convergence ***

               *****************************************************
               *                     SUCCESS                       *
               *           SCF CONVERGED AFTER  15 CYCLES          *
               *****************************************************

Recomputing exchange energy using gridx3       ... done (    3.504 sec)
Old exchange energy                            :    -22.313907349 Eh
New exchange energy                            :    -22.313904838 Eh
Exchange energy change after final integration :      0.000002511 Eh
Total energy after final integration           :  -1967.033765855 Eh
             **** ENERGY FILE WAS UPDATED (orca.en.tmp) ****

----------------
TOTAL SCF ENERGY
----------------

Total Energy       :      -1967.03376585521255 Eh          -53525.70996 eV

Components:
Nuclear Repulsion  :        568.22068724771952 Eh           15462.07098 eV
Electronic Energy  :      -2535.14482204737033 Eh          -68984.79773 eV
One Electron Energy:      -3841.76857571356231 Eh         -104539.83765 eV
Two Electron Energy:       1306.62375366619199 Eh           35555.03992 eV
CPCM Dielectric    :         -0.10963356616912 Eh              -2.98328 eV

Virial components:
Potential Energy   :      -3930.21231092397329 Eh         -106946.51404 eV
Kinetic Energy     :       1963.17854506876074 Eh           53420.80407 eV
Virial Ratio       :          2.00196376473049

DFT components:
N(Alpha)           :       43.000016059335 electrons
N(Beta)            :       43.000016059335 electrons
N(Total)           :       86.000032118670 electrons
E(X)               :      -88.910616955726 Eh       
E(C)               :       -3.855325923857 Eh       
E(XC)              :      -92.765942879583 Eh       

CPCM Solvation Model Properties:
Surface-charge          :         -1.03236082247052
Corrected charge        :         -1.00000000000000
Outlying charge corr.   :          0.00006335925503 Eh               0.00172 eV
Free-energy (cav+disp)  :  This term is not implemented in the current solvation scheme

---------------
SCF CONVERGENCE
---------------

  Last Energy change         ...    1.8142e-08  Tolerance :   1.0000e-08
  Last MAX-Density change    ...    2.9164e-05  Tolerance :   1.0000e-07
  Last RMS-Density change    ...    4.9612e-06  Tolerance :   5.0000e-09
  Last DIIS Error            ...    2.7117e-03  Tolerance :   5.0000e-07
  Last Orbital Gradient      ...    1.5626e-06  Tolerance :   1.0000e-05
  Last Orbital Rotation      ...    1.0288e-05  Tolerance :   1.0000e-05


----------------
ORBITAL ENERGIES
----------------

  NO   OCC          E(Eh)            E(eV) 
   0   2.0000    -323.031765     -8790.1412 
   1   2.0000     -38.817015     -1056.2647 
   2   2.0000     -34.022224      -925.7918 
   3   2.0000     -34.022176      -925.7905 
   4   2.0000     -34.021836      -925.7812 
   5   2.0000     -14.374504      -391.1501 
   6   2.0000     -10.253156      -279.0026 
   7   2.0000     -10.214625      -277.9541 
   8   2.0000     -10.197315      -277.4830 
   9   2.0000     -10.194555      -277.4079 
  10   2.0000     -10.192749      -277.3588 
  11   2.0000     -10.191568      -277.3267 
  12   2.0000     -10.189767      -277.2776 
  13   2.0000      -4.312032      -117.3364 
  14   2.0000      -2.807781       -76.4036 
  15   2.0000      -2.806965       -76.3814 
  16   2.0000      -2.806575       -76.3708 
  17   2.0000      -0.976894       -26.5826 
  18   2.0000      -0.880906       -23.9707 
  19   2.0000      -0.793015       -21.5790 
  20   2.0000      -0.771401       -20.9909 
  21   2.0000      -0.708086       -19.2680 
  22   2.0000      -0.636667       -17.3246 
  23   2.0000      -0.623113       -16.9558 
  24   2.0000      -0.580345       -15.7920 
  25   2.0000      -0.549724       -14.9588 
  26   2.0000      -0.510571       -13.8934 
  27   2.0000      -0.489172       -13.3111 
  28   2.0000      -0.464356       -12.6358 
  29   2.0000      -0.454694       -12.3728 
  30   2.0000      -0.445155       -12.1133 
  31   2.0000      -0.434215       -11.8156 
  32   2.0000      -0.390009       -10.6127 
  33   2.0000      -0.374244       -10.1837 
  34   2.0000      -0.365793        -9.9537 
  35   2.0000      -0.315277        -8.5791 
  36   2.0000      -0.302957        -8.2439 
  37   2.0000      -0.302313        -8.2263 
  38   2.0000      -0.301377        -8.2009 
  39   2.0000      -0.301294        -8.1986 
  40   2.0000      -0.282367        -7.6836 
  41   2.0000      -0.280805        -7.6411 
  42   2.0000      -0.220311        -5.9950 
  43   0.0000      -0.122685        -3.3384 
  44   0.0000      -0.053611        -1.4588 
  45   0.0000      -0.032540        -0.8855 
  46   0.0000       0.008378         0.2280 
  47   0.0000       0.013825         0.3762 
  48   0.0000       0.035493         0.9658 
  49   0.0000       0.045661         1.2425 
  50   0.0000       0.062449         1.6993 
  51   0.0000       0.074145         2.0176 
  52   0.0000       0.083756         2.2791 
  53   0.0000       0.088965         2.4208 
*Only the first 10 virtual orbitals were printed.

                    ********************************
                    * MULLIKEN POPULATION ANALYSIS *
                    ********************************

-----------------------
MULLIKEN ATOMIC CHARGES
-----------------------
   0 C :   -0.122029
   1 C :   -0.200518
   2 C :    0.199986
   3 C :   -0.244411
   4 C :   -0.129541
   5 C :   -0.147210
   6 H :    0.142511
   7 H :    0.142147
   8 H :    0.136197
   9 H :    0.128363
  10 H :    0.142464
  11 C :   -0.019896
  12 N :   -0.491498
  13 H :    0.287872
  14 H :    0.290020
  15 H :    0.185368
  16 H :   -0.025923
  17 Cu:    0.726097
Sum of atomic charges:    1.0000000

--------------------------------
MULLIKEN REDUCED ORBITAL CHARGES
--------------------------------
  0 C s       :     3.213847  s :     3.213847
      pz      :     0.952081  p :     2.819890
      px      :     0.952613
      py      :     0.915196
      dz2     :     0.011342  d :     0.081001
      dxz     :     0.017050
      dyz     :     0.013079
      dx2y2   :     0.023140
      dxy     :     0.016390
      f0      :     0.000869  f :     0.007291
      f+1     :     0.000311
      f-1     :     0.001303
      f+2     :     0.000807
      f-2     :     0.001631
      f+3     :     0.001563
      f-3     :     0.000807

  1 C s       :     3.265628  s :     3.265628
      pz      :     0.967707  p :     2.848537
      px      :     0.900535
      py      :     0.980295
      dz2     :     0.008402  d :     0.078990
      dxz     :     0.018045
      dyz     :     0.013286
      dx2y2   :     0.023173
      dxy     :     0.016084
      f0      :     0.000701  f :     0.007362
      f+1     :     0.001210
      f-1     :     0.000503
      f+2     :     0.000966
      f-2     :     0.001454
      f+3     :     0.001404
      f-3     :     0.001124

  2 C s       :     3.137253  s :     3.137253
      pz      :     0.908512  p :     2.535393
      px      :     0.781258
      py      :     0.845623
      dz2     :     0.021947  d :     0.117231
      dxz     :     0.020800
      dyz     :     0.014441
      dx2y2   :     0.035028
      dxy     :     0.025015
      f0      :     0.000739  f :     0.010137
      f+1     :     0.001407
      f-1     :     0.001419
      f+2     :     0.001010
      f-2     :     0.001917
      f+3     :     0.001927
      f-3     :     0.001718

  3 C s       :     3.276206  s :     3.276206
      pz      :     0.992552  p :     2.883890
      px      :     0.992616
      py      :     0.898722
      dz2     :     0.010329  d :     0.077065
      dxz     :     0.016268
      dyz     :     0.013080
      dx2y2   :     0.024328
      dxy     :     0.013060
      f0      :     0.000839  f :     0.007249
      f+1     :     0.000315
      f-1     :     0.001265
      f+2     :     0.000861
      f-2     :     0.001611
      f+3     :     0.001542
      f-3     :     0.000817

  4 C s       :     3.210358  s :     3.210358
      pz      :     0.953630  p :     2.829728
      px      :     0.914535
      py      :     0.961562
      dz2     :     0.009297  d :     0.082065
      dxz     :     0.019022
      dyz     :     0.013174
      dx2y2   :     0.024000
      dxy     :     0.016573
      f0      :     0.000750  f :     0.007391
      f+1     :     0.001202
      f-1     :     0.000530
      f+2     :     0.000930
      f-2     :     0.001495
      f+3     :     0.001445
      f-3     :     0.001039

  5 C s       :     3.223394  s :     3.223394
      pz      :     0.933642  p :     2.836619
      px      :     0.956106
      py      :     0.946871
      dz2     :     0.019116  d :     0.080007
      dxz     :     0.013081
      dyz     :     0.011478
      dx2y2   :     0.013423
      dxy     :     0.022908
      f0      :     0.000400  f :     0.007190
      f+1     :     0.001206
      f-1     :     0.001300
      f+2     :     0.000881
      f-2     :     0.001356
      f+3     :     0.000926
      f-3     :     0.001122

  6 H s       :     0.835237  s :     0.835237
      pz      :     0.007019  p :     0.022252
      px      :     0.010999
      py      :     0.004235

  7 H s       :     0.835525  s :     0.835525
      pz      :     0.004333  p :     0.022328
      px      :     0.010146
      py      :     0.007848

  8 H s       :     0.841438  s :     0.841438
      pz      :     0.007957  p :     0.022364
      px      :     0.003783
      py      :     0.010625

  9 H s       :     0.848844  s :     0.848844
      pz      :     0.007436  p :     0.022793
      px      :     0.010714
      py      :     0.004643

 10 H s       :     0.835246  s :     0.835246
      pz      :     0.007892  p :     0.022290
      px      :     0.003706
      py      :     0.010691

 11 C s       :     3.109863  s :     3.109863
      pz      :     0.825997  p :     2.763051
      px      :     0.822246
      py      :     1.114808
      dz2     :     0.035131  d :     0.135210
      dxz     :     0.031329
      dyz     :     0.017447
      dx2y2   :     0.030832
      dxy     :     0.020470
      f0      :     0.001021  f :     0.011773
      f+1     :     0.003148
      f-1     :     0.000439
      f+2     :     0.001790
      f-2     :     0.001758
      f+3     :     0.001754
      f-3     :     0.001863

 12 N s       :     3.497180  s :     3.497180
      pz      :     1.423920  p :     3.945947
      px      :     1.229821
      py      :     1.292207
      dz2     :     0.010986  d :     0.045196
      dxz     :     0.006931
      dyz     :     0.006397
      dx2y2   :     0.006545
      dxy     :     0.014336
      f0      :     0.000228  f :     0.003174
      f+1     :     0.000570
      f-1     :     0.000503
      f+2     :     0.000586
      f-2     :     0.000377
      f+3     :     0.000560
      f-3     :     0.000350

 13 H s       :     0.673288  s :     0.673288
      pz      :     0.017279  p :     0.038840
      px      :     0.007975
      py      :     0.013586

 14 H s       :     0.673363  s :     0.673363
      pz      :     0.008833  p :     0.036617
      px      :     0.012238
      py      :     0.015546

 15 H s       :     0.782794  s :     0.782794
      pz      :     0.012131  p :     0.031838
      px      :     0.006753
      py      :     0.012954

 16 H s       :     1.008167  s :     1.008167
      pz      :     0.008375  p :     0.017756
      px      :     0.005408
      py      :     0.003973

 17 Cus       :     6.211510  s :     6.211510
      pz      :     4.050142  p :    12.103074
      px      :     4.043700
      py      :     4.009232
      dz2     :     1.997552  d :     9.959278
      dxz     :     1.970617
      dyz     :     1.998322
      dx2y2   :     1.996122
      dxy     :     1.996663
      f0      :     0.000005  f :     0.000040
      f+1     :     0.000010
      f-1     :     0.000002
      f+2     :     0.000011
      f-2     :     0.000007
      f+3     :     0.000003
      f-3     :     0.000003



                     *******************************
                     * LOEWDIN POPULATION ANALYSIS *
                     *******************************

----------------------
LOEWDIN ATOMIC CHARGES
----------------------
   0 C :   -0.137792
   1 C :   -0.095084
   2 C :   -0.157316
   3 C :   -0.115711
   4 C :   -0.138236
   5 C :   -0.136872
   6 H :    0.151376
   7 H :    0.149344
   8 H :    0.154580
   9 H :    0.149037
  10 H :    0.151209
  11 C :   -0.315071
  12 N :    0.008164
  13 H :    0.199268
  14 H :    0.208353
  15 H :    0.171623
  16 H :    0.152352
  17 Cu:    0.600777

-------------------------------
LOEWDIN REDUCED ORBITAL CHARGES
-------------------------------
  0 C s       :     2.764968  s :     2.764968
      pz      :     0.936724  p :     2.941195
      px      :     0.994578
      py      :     1.009893
      dz2     :     0.044913  d :     0.387771
      dxz     :     0.080035
      dyz     :     0.063877
      dx2y2   :     0.108828
      dxy     :     0.090118
      f0      :     0.005546  f :     0.043858
      f+1     :     0.002589
      f-1     :     0.005765
      f+2     :     0.004873
      f-2     :     0.008502
      f+3     :     0.010189
      f-3     :     0.006393

  1 C s       :     2.756702  s :     2.756702
      pz      :     0.929549  p :     2.917355
      px      :     1.019033
      py      :     0.968773
      dz2     :     0.037885  d :     0.378327
      dxz     :     0.077474
      dyz     :     0.062494
      dx2y2   :     0.114525
      dxy     :     0.085949
      f0      :     0.004595  f :     0.042700
      f+1     :     0.006740
      f-1     :     0.001920
      f+2     :     0.004596
      f-2     :     0.007997
      f+3     :     0.009083
      f-3     :     0.007768

  2 C s       :     2.698563  s :     2.698563
      pz      :     0.931007  p :     2.867299
      px      :     0.971708
      py      :     0.964584
      dz2     :     0.088235  d :     0.532121
      dxz     :     0.095144
      dyz     :     0.073751
      dx2y2   :     0.134411
      dxy     :     0.140580
      f0      :     0.005438  f :     0.059334
      f+1     :     0.007230
      f-1     :     0.005854
      f+2     :     0.006467
      f-2     :     0.011056
      f+3     :     0.013220
      f-3     :     0.010068

  3 C s       :     2.756059  s :     2.756059
      pz      :     0.949391  p :     2.939783
      px      :     1.000317
      py      :     0.990075
      dz2     :     0.041900  d :     0.376993
      dxz     :     0.078425
      dyz     :     0.061920
      dx2y2   :     0.109334
      dxy     :     0.085414
      f0      :     0.005457  f :     0.042876
      f+1     :     0.002551
      f-1     :     0.005578
      f+2     :     0.004717
      f-2     :     0.008251
      f+3     :     0.010028
      f-3     :     0.006295

  4 C s       :     2.765122  s :     2.765122
      pz      :     0.931098  p :     2.940389
      px      :     1.045374
      py      :     0.963917
      dz2     :     0.038921  d :     0.388973
      dxz     :     0.081887
      dyz     :     0.064024
      dx2y2   :     0.117054
      dxy     :     0.087087
      f0      :     0.004797  f :     0.043752
      f+1     :     0.006853
      f-1     :     0.001987
      f+2     :     0.004734
      f-2     :     0.008256
      f+3     :     0.009400
      f-3     :     0.007726

  5 C s       :     2.767690  s :     2.767690
      pz      :     0.960698  p :     2.945370
      px      :     0.998311
      py      :     0.986361
      dz2     :     0.075978  d :     0.381203
      dxz     :     0.063204
      dyz     :     0.058097
      dx2y2   :     0.067828
      dxy     :     0.116096
      f0      :     0.003542  f :     0.042610
      f+1     :     0.005821
      f-1     :     0.005419
      f+2     :     0.006604
      f-2     :     0.007877
      f+3     :     0.006836
      f-3     :     0.006511

  6 H s       :     0.789498  s :     0.789498
      pz      :     0.018737  p :     0.059125
      px      :     0.028064
      py      :     0.012323

  7 H s       :     0.791193  s :     0.791193
      pz      :     0.012482  p :     0.059462
      px      :     0.026220
      py      :     0.020760

  8 H s       :     0.785950  s :     0.785950
      pz      :     0.021108  p :     0.059471
      px      :     0.011068
      py      :     0.027295

  9 H s       :     0.790626  s :     0.790626
      pz      :     0.019860  p :     0.060337
      px      :     0.027265
      py      :     0.013213

 10 H s       :     0.789634  s :     0.789634
      pz      :     0.020777  p :     0.059157
      px      :     0.011085
      py      :     0.027295

 11 C s       :     2.749184  s :     2.749184
      pz      :     0.870201  p :     2.933165
      px      :     0.982202
      py      :     1.080762
      dz2     :     0.129550  d :     0.563517
      dxz     :     0.126304
      dyz     :     0.065042
      dx2y2   :     0.135020
      dxy     :     0.107601
      f0      :     0.005872  f :     0.069205
      f+1     :     0.021463
      f-1     :     0.001392
      f+2     :     0.008310
      f-2     :     0.009659
      f+3     :     0.010241
      f-3     :     0.012269

 12 N s       :     2.955513  s :     2.955513
      pz      :     1.355627  p :     3.845682
      px      :     1.265369
      py      :     1.224686
      dz2     :     0.037629  d :     0.178057
      dxz     :     0.029290
      dyz     :     0.027243
      dx2y2   :     0.030428
      dxy     :     0.053466
      f0      :     0.001004  f :     0.012584
      f+1     :     0.003035
      f-1     :     0.001037
      f+2     :     0.001970
      f-2     :     0.001738
      f+3     :     0.001844
      f-3     :     0.001956

 13 H s       :     0.690383  s :     0.690383
      pz      :     0.047557  p :     0.110349
      px      :     0.021554
      py      :     0.041238

 14 H s       :     0.680778  s :     0.680778
      pz      :     0.027085  p :     0.110869
      px      :     0.033595
      py      :     0.050189

 15 H s       :     0.742809  s :     0.742809
      pz      :     0.035784  p :     0.085567
      px      :     0.017588
      py      :     0.032195

 16 H s       :     0.805905  s :     0.805905
      pz      :     0.020437  p :     0.041743
      px      :     0.011722
      py      :     0.009584

 17 Cus       :     6.189551  s :     6.189551
      pz      :     4.071510  p :    12.126421
      px      :     4.042999
      py      :     4.011911
      dz2     :     2.013144  d :    10.083200
      dxz     :     2.021253
      dyz     :     2.013703
      dx2y2   :     2.020862
      dxy     :     2.014238
      f0      :     0.000007  f :     0.000051
      f+1     :     0.000012
      f-1     :     0.000002
      f+2     :     0.000016
      f-2     :     0.000009
      f+3     :     0.000003
      f-3     :     0.000003



                      *****************************
                      * MAYER POPULATION ANALYSIS *
                      *****************************

  NA   - Mulliken gross atomic population
  ZA   - Total nuclear charge
  QA   - Mulliken gross atomic charge
  VA   - Mayer's total valence
  BVA  - Mayer's bonded valence
  FA   - Mayer's free valence

  ATOM       NA         ZA         QA         VA         BVA        FA
  0 C      6.1220     6.0000    -0.1220     3.8810     3.8810    -0.0000
  1 C      6.2005     6.0000    -0.2005     3.9117     3.9117    -0.0000
  2 C      5.8000     6.0000     0.2000     3.7224     3.7224    -0.0000
  3 C      6.2444     6.0000    -0.2444     3.9224     3.9224     0.0000
  4 C      6.1295     6.0000    -0.1295     3.9147     3.9147     0.0000
  5 C      6.1472     6.0000    -0.1472     3.8908     3.8908     0.0000
  6 H      0.8575     1.0000     0.1425     0.9650     0.9650    -0.0000
  7 H      0.8579     1.0000     0.1421     0.9642     0.9642    -0.0000
  8 H      0.8638     1.0000     0.1362     0.9734     0.9734     0.0000
  9 H      0.8716     1.0000     0.1284     0.9770     0.9770     0.0000
 10 H      0.8575     1.0000     0.1425     0.9656     0.9656     0.0000
 11 C      6.0199     6.0000    -0.0199     3.7032     3.7032    -0.0000
 12 N      7.4915     7.0000    -0.4915     3.1315     3.1315     0.0000
 13 H      0.7121     1.0000     0.2879     0.9285     0.9285     0.0000
 14 H      0.7100     1.0000     0.2900     0.9204     0.9204     0.0000
 15 H      0.8146     1.0000     0.1854     0.9548     0.9548     0.0000
 16 H      1.0259     1.0000    -0.0259     0.9228     0.9228    -0.0000
 17 Cu    28.2739    29.0000     0.7261     0.5364     0.5364     0.0000

  Mayer bond orders larger than 0.100000
B(  0-C ,  1-C ) :   1.4454 B(  0-C ,  5-C ) :   1.3693 B(  0-C ,  6-H ) :   0.9748 
B(  1-C ,  2-C ) :   1.2947 B(  1-C ,  8-H ) :   0.9763 B(  2-C ,  3-C ) :   1.3030 
B(  2-C , 11-C ) :   1.0888 B(  3-C ,  4-C ) :   1.4372 B(  3-C ,  9-H ) :   0.9665 
B(  4-C ,  5-C ) :   1.3960 B(  4-C , 10-H ) :   0.9704 B(  5-C ,  7-H ) :   0.9690 
B( 11-C , 12-N ) :   0.8942 B( 11-C , 15-H ) :   0.8875 B( 11-C , 16-H ) :   0.7869 
B( 12-N , 13-H ) :   0.8974 B( 12-N , 14-H ) :   0.8896 B( 12-N , 17-Cu) :   0.4504 


-------
TIMINGS
-------

Total SCF time: 0 days 0 hours 11 min 38 sec 

Total time                  ....     698.050 sec
Sum of individual times     ....     649.462 sec  ( 93.0%)

SCF preparation             ....      25.655 sec  (  3.7%)
Fock matrix formation       ....     394.445 sec  ( 56.5%)
  Startup                   ....       4.258 sec  (  1.1% of F)
  Split-RI-J                ....      25.279 sec  (  6.4% of F)
  Chain of spheres X        ....     175.532 sec  ( 44.5% of F)
  XC integration            ....     136.201 sec  ( 34.5% of F)
    XC Preparation          ....       0.000 sec  (  0.0% of XC)
    Basis function eval.    ....       0.198 sec  (  0.1% of XC)
    Density eval.           ....       0.192 sec  (  0.1% of XC)
    XC-Functional eval.     ....       0.015 sec  (  0.0% of XC)
    XC-Potential eval.      ....       0.170 sec  (  0.1% of XC)
  CPCM terms                ....      15.012 sec  (  3.8% of F)
Diagonalization             ....       0.000 sec  (  0.0%)
Density matrix formation    ....      29.380 sec  (  4.2%)
Total Energy calculation    ....      24.165 sec  (  3.5%)
Population analysis         ....       7.656 sec  (  1.1%)
Orbital Transformation      ....      10.377 sec  (  1.5%)
Orbital Orthonormalization  ....       0.000 sec  (  0.0%)
DIIS solution               ....      72.519 sec  ( 10.4%)
SOSCF solution              ....      85.264 sec  ( 12.2%)
Finished LeanSCF after 699.8 sec

Maximum memory used throughout the entire LEANSCF-calculation: 31.9 MB


           ************************************************************
           *        Program running with 32 parallel MPI-processes    *
           *              working on a common directory               *
           ************************************************************

------------------------------------------------------------------------------
                         ORCA PROPERTY INTEGRAL CALCULATIONS
------------------------------------------------------------------------------

GBWName                                   ... orca.gbw
Number of atoms                           ...     18
Number of basis functions                 ...    347
Max core memory                           ...   2000 MB

Dipole integrals                          ... YES
Quadrupole integrals                      ...  NO
Linear momentum integrals                 ...  NO
Angular momentum integrals                ...  NO
Higher moments length integrals           ...  NO
Higher moments velocity integrals         ...  NO
Kinetic energy integrals                  ...  NO
GIAO right hand sides                     ...  NO
GIAO dipole derivative integrals          ...  NO
SOC integrals                             ...  NO
EPR diamagnetic integrals (GIAO)          ...  NO
EPR gauge integrals                       ...  NO
Field gradient integrals                  ...  NO (   0 nuclei)
Spin-dipole/Fermi contact integrals       ...  NO (   0 nuclei)
Contact density integrals                 ...  NO (   0 nuclei)
Nucleus-orbit integrals                   ...  NO (   0 nuclei)
Geometric perturbations                   ...  NO (  18 nuclei)

Choice of electric origin   ... Center of mass
Position of electric origin ... (  0.9456,  4.3556,  3.7306) 
Choice of magnetic origin   ... GIAO
Position of magnetic origin ... (  0.0000,  0.0000,  0.0000) 

Calculating integrals                     ... Electric Dipole (Length)     done (  0.5 sec)

Property integrals calculated in   0.6 sec

Maximum memory used throughout the entire PROPINT-calculation: 20.3 MB


-------------------------------------------------------------------------------
                          DFT DISPERSION CORRECTION                            
                                                                               
                              DFTD3 V3.1  Rev 1                                
                          USING Becke-Johnson damping                          
-------------------------------------------------------------------------------
The B3LYP functional is recognized
Active option DFTDOPT                   ...         4   

molecular C6(AA) [au] = 4556.724881 


            DFT-D V3
 parameters
 s6 scaling factor         :     1.0000 
 a1 scaling factor         :     0.3981 
 s8 scaling factor         :     1.9889 
 a2 scaling factor         :     4.4211 
 ad hoc parameters k1-k3   :    16.0000     1.3333    -4.0000 

 Edisp/kcal,au: -21.364317973659  -0.034046204205 
 E6   /kcal   :  -9.758258167 
 E8   /kcal   : -11.606059807 
 % E8         :  54.324504161 

-------------------------   ----------------
Dispersion correction           -0.034046204
-------------------------   ----------------


-------------------------   --------------------
FINAL SINGLE POINT ENERGY     -1967.067812059418
-------------------------   --------------------



           ************************************************************
           *        Program running with 32 parallel MPI-processes    *
           *              working on a common directory               *
           ************************************************************
------------------------------------------------------------------------------
                         ORCA SCF GRADIENT CALCULATION
------------------------------------------------------------------------------

Nuc. rep. gradient        (SHARK) ... done (  0.0 sec)
HCore & Overlap gradient  (SHARK) ... done (  2.0 sec)
Split-RIJ-J gradient      (SHARK) ... done (  1.8 sec)
done ( 17.1 sec)
XC gradient                       ... done (  8.8 sec)
CPCM gradient                     ... done (  1.3 sec)
Dispersion correction             ... done (  0.0 sec)

-------------------
DISPERSION GRADIENT
-------------------

   1   C   :   -0.000362638   -0.000019512   -0.000138675
   2   C   :   -0.000297663    0.000081328   -0.000113388
   3   C   :   -0.000405165   -0.000044814    0.000043354
   4   C   :   -0.000272195   -0.000350382    0.000251341
   5   C   :   -0.000135550   -0.000323498    0.000185606
   6   C   :   -0.000225031   -0.000158331    0.000016456
   7   H   :   -0.000245789    0.000046585   -0.000145089
   8   H   :   -0.000223856   -0.000172986    0.000020368
   9   H   :   -0.000170265    0.000202263   -0.000193547
  10   H   :    0.000065852   -0.000248514    0.000270876
  11   H   :   -0.000004182   -0.000236981    0.000169445
[...]
     34      -0.000783   0.000469   0.000343  -0.000185  -0.000986   0.001258
     35       0.000960  -0.000544  -0.000401   0.000211   0.001758  -0.000254
     36       0.000034  -0.000074  -0.000020   0.000058  -0.006141  -0.076759
     37       0.000037  -0.000065  -0.000009   0.000028  -0.057172   0.013790
     38       0.000018  -0.000043  -0.000009   0.000039  -0.002932  -0.021231
     39       0.000030  -0.000216   0.000068  -0.000138  -0.488287   0.381818
     40       0.000370  -0.000019  -0.000143   0.000261   0.575893  -0.493144
     41       0.000171  -0.000237  -0.000071  -0.000013  -0.136675   0.116195
     42      -0.000012   0.000254   0.000067  -0.000000   0.577896   0.686206
     43       0.000126  -0.000280  -0.000045   0.000259   0.220017   0.296747
     44       0.000044   0.000005  -0.000108   0.000089   0.159212   0.177824
     45       0.001318  -0.001235  -0.000304   0.000572  -0.001598   0.000287
     46       0.008889  -0.006010  -0.002714   0.002744   0.007270  -0.004448
     47      -0.011355   0.007218   0.003666  -0.003032  -0.005149   0.005463
     48      -0.001683  -0.001084   0.000218   0.002330  -0.008235   0.016818
     49       0.001607  -0.000324  -0.000782  -0.000577   0.007190  -0.009671
     50      -0.000652   0.000221   0.000243   0.000141   0.000652   0.000032
     51      -0.000002   0.000011  -0.000007  -0.000007  -0.000003  -0.000026
     52      -0.000012  -0.000003   0.000001  -0.000008  -0.000056   0.000041
     53      -0.000008   0.000005   0.000001  -0.000013   0.000013  -0.000046


-----------
IR SPECTRUM
-----------

 Mode   freq       eps      Int      T**2         TX        TY        TZ
       cm**-1   L/(mol*cm) km/mol    a.u.
----------------------------------------------------------------------------
  6:     42.31   0.001128    5.70  0.008318  ( 0.036929  0.046633  0.069137)
  7:     91.47   0.000255    1.29  0.000872  ( 0.025504  0.012848  0.007494)
  8:    115.23   0.000463    2.34  0.001255  (-0.032899  0.012155  0.005010)
  9:    148.51   0.003111   15.72  0.006538  (-0.006305 -0.034870 -0.072681)
 10:    301.86   0.000470    2.37  0.000486  (-0.012572 -0.014856 -0.010345)
 11:    348.41   0.000315    1.59  0.000282  (-0.013650  0.009663 -0.001484)
 12:    410.80   0.000256    1.29  0.000194  (-0.002698  0.008889  0.010384)
 13:    422.78   0.000641    3.24  0.000473  (-0.002143  0.020146  0.007925)
 14:    511.75   0.002304   11.64  0.001405  ( 0.000561  0.019818  0.031806)
 15:    541.21   0.007794   39.39  0.004494  (-0.059773  0.014212 -0.026821)
 16:    630.50   0.007439   37.59  0.003682  ( 0.060571 -0.002574  0.002509)
 17:    633.25   0.000214    1.08  0.000105  ( 0.009302 -0.004207  0.001053)
 18:    727.17   0.017565   88.77  0.007538  (-0.033559  0.045032  0.066210)
 19:    774.55   0.007424   37.52  0.002991  (-0.006495  0.030173  0.045148)
 20:    817.27   0.004772   24.11  0.001822  (-0.011818 -0.022619 -0.034215)
 21:    866.77   0.000311    1.57  0.000112  ( 0.007164 -0.002035  0.007526)
 22:    928.61   0.007770   39.26  0.002611  ( 0.005641 -0.020517 -0.046457)
 23:    940.02   0.002839   14.35  0.000943  (-0.008914 -0.013635 -0.026024)
 24:    977.65   0.003315   16.75  0.001058  ( 0.007141  0.019678  0.024897)
 25:    991.89   0.000243    1.23  0.000076  ( 0.003321  0.001801  0.007877)
 26:   1015.28   0.000405    2.05  0.000125  ( 0.001929  0.004757  0.009908)
 27:   1020.35   0.000166    0.84  0.000051  (-0.004163 -0.003821 -0.004338)
 28:   1038.75   0.001036    5.24  0.000311  (-0.012462 -0.010230  0.007160)
 29:   1077.09   0.017553   88.71  0.005086  ( 0.011618  0.008716 -0.069820)
 30:   1113.35   0.002450   12.38  0.000687  ( 0.018693 -0.007188 -0.016898)
 31:   1157.72   0.001484    7.50  0.000400  ( 0.003773 -0.009082  0.017418)
 32:   1181.49   0.000096    0.49  0.000025  ( 0.000694  0.003353 -0.003697)
 33:   1196.07   0.000056    0.28  0.000015  (-0.000169 -0.003362  0.001803)
 34:   1236.80   0.002793   14.11  0.000705  (-0.019382 -0.016993  0.006343)
 35:   1302.99   0.000818    4.13  0.000196  (-0.004936 -0.011933  0.005390)
 36:   1342.57   0.000160    0.81  0.000037  (-0.001836  0.002433  0.005280)
 37:   1364.16   0.000008    0.04  0.000002  (-0.000299 -0.000852  0.001002)
 38:   1397.35   0.003734   18.87  0.000834  (-0.018235 -0.021319 -0.006849)
 39:   1496.74   0.001459    7.37  0.000304  ( 0.013774 -0.010591  0.001533)
 40:   1497.24   0.001060    5.36  0.000221  (-0.005363 -0.010374  0.009196)
 41:   1517.62   0.001835    9.27  0.000377  ( 0.015642  0.010739 -0.004162)
 42:   1600.35   0.001394    7.04  0.000272  (-0.010955  0.005230 -0.011153)
 43:   1621.44   0.010037   50.72  0.001932  ( 0.003143  0.043343  0.006578)
 44:   1652.26   0.000441    2.23  0.000083  ( 0.003515  0.006743  0.005045)
 45:   3065.51   0.005893   29.78  0.000600  (-0.015449 -0.004730  0.018408)
 46:   3116.43   0.001972    9.97  0.000197  (-0.008822  0.007922 -0.007543)
 47:   3129.95   0.001288    6.51  0.000128  ( 0.009187  0.003716  0.005499)
 48:   3172.70   0.000568    2.87  0.000056  (-0.002746 -0.005855  0.003748)
 49:   3179.64   0.000497    2.51  0.000049  ( 0.006072  0.003427 -0.000415)
 50:   3188.36   0.003052   15.43  0.000299  (-0.003348  0.013267 -0.010561)
 51:   3197.97   0.001948    9.85  0.000190  ( 0.012040  0.006013  0.002999)
 52:   3467.63   0.005454   27.56  0.000491  ( 0.003668  0.021749  0.002088)
 53:   3530.37   0.010680   53.97  0.000944  ( 0.028354 -0.007865  0.008846)

* The epsilon (eps) is given for a Dirac delta lineshape.
** The dipole moment derivative (T) already includes vibrational overlap.

The first frequency considered to be a vibration is 6
The total number of vibrations considered is 48


--------------------------
THERMOCHEMISTRY AT 298.15K
--------------------------

Temperature         ...   298.15 K
Pressure            ...     1.00 atm
Total Mass          ...   170.71 AMU
Quasi RRHO          ...     True
Cut-Off Frequency   ...     1.00 cm^-1

Throughout the following assumptions are being made:
  (1) The electronic state is orbitally nondegenerate
  (2) There are no thermally accessible electronically excited states
  (3) Hindered rotations indicated by low frequency modes are not
      treated as such but are treated as vibrations and this may
      cause some error
  (4) All equations used are the standard statistical mechanics
      equations for an ideal gas
  (5) All vibrations are strictly harmonic

freq.      42.31  E(vib)   ...       0.53 
freq.      91.47  E(vib)   ...       0.47 
freq.     115.23  E(vib)   ...       0.44 
freq.     148.51  E(vib)   ...       0.41 
freq.     301.86  E(vib)   ...       0.26 
freq.     348.41  E(vib)   ...       0.23 
freq.     410.80  E(vib)   ...       0.19 
freq.     422.78  E(vib)   ...       0.18 
freq.     511.75  E(vib)   ...       0.14 
freq.     541.21  E(vib)   ...       0.12 
freq.     630.50  E(vib)   ...       0.09 
freq.     633.25  E(vib)   ...       0.09 
freq.     727.17  E(vib)   ...       0.06 
freq.     774.55  E(vib)   ...       0.05 
freq.     817.27  E(vib)   ...       0.05 
freq.     866.77  E(vib)   ...       0.04 
freq.     928.61  E(vib)   ...       0.03 
freq.     940.02  E(vib)   ...       0.03 
freq.     977.65  E(vib)   ...       0.03 
freq.     991.89  E(vib)   ...       0.02 
freq.    1015.28  E(vib)   ...       0.02 
freq.    1020.35  E(vib)   ...       0.02 
freq.    1038.75  E(vib)   ...       0.02 
freq.    1077.09  E(vib)   ...       0.02 
freq.    1113.35  E(vib)   ...       0.01 
freq.    1157.72  E(vib)   ...       0.01 
freq.    1181.49  E(vib)   ...       0.01 
freq.    1196.07  E(vib)   ...       0.01 
freq.    1236.80  E(vib)   ...       0.01 
freq.    1302.99  E(vib)   ...       0.01 
freq.    1342.57  E(vib)   ...       0.01 
freq.    1364.16  E(vib)   ...       0.01 
freq.    1397.35  E(vib)   ...       0.00 
freq.    1496.74  E(vib)   ...       0.00 
freq.    1497.24  E(vib)   ...       0.00 
freq.    1517.62  E(vib)   ...       0.00 
freq.    1600.35  E(vib)   ...       0.00 
freq.    1621.44  E(vib)   ...       0.00 
freq.    1652.26  E(vib)   ...       0.00 
freq.    3065.51  E(vib)   ...       0.00 
freq.    3116.43  E(vib)   ...       0.00 
freq.    3129.95  E(vib)   ...       0.00 
freq.    3172.70  E(vib)   ...       0.00 
freq.    3179.64  E(vib)   ...       0.00 
freq.    3188.36  E(vib)   ...       0.00 
freq.    3197.97  E(vib)   ...       0.00 
freq.    3467.63  E(vib)   ...       0.00 
freq.    3530.37  E(vib)   ...       0.00 

------------
INNER ENERGY
------------

The inner energy is: U= E(el) + E(ZPE) + E(vib) + E(rot) + E(trans)
    E(el)   - is the total energy from the electronic structure calculation
              = E(kin-el) + E(nuc-el) + E(el-el) + E(nuc-nuc)
    E(ZPE)  - the the zero temperature vibrational energy from the frequency calculation
    E(vib)  - the the finite temperature correction to E(ZPE) due to population
              of excited vibrational states
    E(rot)  - is the rotational thermal energy
    E(trans)- is the translational thermal energy

Summary of contributions to the inner energy U:
Electronic energy                ...  -1967.19577209 Eh
Zero point energy                ...      0.14830916 Eh      93.07 kcal/mol
Thermal vibrational correction   ...      0.00579612 Eh       3.64 kcal/mol
Thermal rotational correction    ...      0.00141627 Eh       0.89 kcal/mol
Thermal translational correction ...      0.00141627 Eh       0.89 kcal/mol
-----------------------------------------------------------------------
Total thermal energy                  -1967.03883427 Eh


Summary of corrections to the electronic energy:
(perhaps to be used in another calculation)
Total thermal correction                  0.00862867 Eh       5.41 kcal/mol
Non-thermal (ZPE) correction              0.14830916 Eh      93.07 kcal/mol
-----------------------------------------------------------------------
Total correction                          0.15693782 Eh      98.48 kcal/mol


--------
ENTHALPY
--------

The enthalpy is H = U + kB*T
                kB is Boltzmann's constant
Total thermal energy              ...  -1967.03883427 Eh 
Thermal Enthalpy correction       ...      0.00094421 Eh       0.59 kcal/mol
-----------------------------------------------------------------------
Total Enthalpy                    ...  -1967.03789006 Eh


Note: Only C1 symmetry has been detected, increase convergence thresholds 
      if your molecule has a higher symmetry. Symmetry factor of 1.0 is   
      used for the rotational entropy correction. 
 

Note: Rotational entropy computed according to Herzberg 
Infrared and Raman Spectra, Chapter V,1, Van Nostrand Reinhold, 1945 
Point Group:  C1, Symmetry Number:   1  
Rotational constants in cm-1:     0.070837     0.031906     0.025895 

Vibrational entropy computed according to the QRRHO of S. Grimme
Chem.Eur.J. 2012 18 9955 using a reference frequency of 100.0 cm-1


-------
ENTROPY
-------

The entropy contributions are T*S = T*(S(el)+S(vib)+S(rot)+S(trans))
     S(el)   - electronic entropy
     S(vib)  - vibrational entropy
     S(rot)  - rotational entropy
     S(trans)- translational entropy
The entropies will be listed as multiplied by the temperature to get
units of energy

Electronic entropy                ...      0.00000000 Eh      0.00 kcal/mol
Vibrational entropy               ...      0.00999136 Eh      6.27 kcal/mol
Rotational entropy                ...      0.01411183 Eh      8.86 kcal/mol
Translational entropy             ...      0.01962863 Eh     12.32 kcal/mol
-----------------------------------------------------------------------
Final entropy term                ...      0.04373182 Eh     27.44 kcal/mol

In case the symmetry of your molecule has not been determined correctly
or in case you have a reason to use a different symmetry number we print 
out the resulting rotational entropy values for sn=1,12:

 non-linear molecules -----------------------------------
|  sn= 1 | S(rot)=       0.01411183 Eh      8.86 kcal/mol|
|  sn= 2 | S(rot)=       0.01345738 Eh      8.44 kcal/mol|
|  sn= 3 | S(rot)=       0.01307454 Eh      8.20 kcal/mol|
|  sn= 4 | S(rot)=       0.01280292 Eh      8.03 kcal/mol|
|  sn= 5 | S(rot)=       0.01259223 Eh      7.90 kcal/mol|
|  sn= 6 | S(rot)=       0.01242009 Eh      7.79 kcal/mol|
|  sn= 7 | S(rot)=       0.01227454 Eh      7.70 kcal/mol|
|  sn= 8 | S(rot)=       0.01214846 Eh      7.62 kcal/mol|
|  sn= 9 | S(rot)=       0.01203726 Eh      7.55 kcal/mol|
|  sn=10 | S(rot)=       0.01193778 Eh      7.49 kcal/mol|
|  sn=11 | S(rot)=       0.01184779 Eh      7.43 kcal/mol|
|  sn=12 | S(rot)=       0.01176563 Eh      7.38 kcal/mol|
 linear molecules ---------------------------------------
|  Dinfh | S(rot)=       0.00877558 Eh      5.51 kcal/mol|
|  Cinfv | S(rot)=       0.00943004 Eh      5.92 kcal/mol|
 --------------------------------------------------------


-------------------
GIBBS FREE ENERGY
-------------------

The Gibbs free energy is G = H - T*S

Total enthalpy                    ...  -1967.03789006 Eh 
Total entropy correction          ...     -0.04373182 Eh    -27.44 kcal/mol
-----------------------------------------------------------------------
Final Gibbs free energy         ...  -1967.08162188 Eh

For completeness - the Gibbs free energy minus the electronic energy
G-E(el)                           ...      0.11415021 Eh     71.63 kcal/mol


Maximum memory used throughout the entire PROP-calculation: 110.8 MB

--------------------------------
SUGGESTED CITATIONS FOR THIS RUN
--------------------------------

Below you find a list of papers that are relevant to this ORCA run
We neither can nor want to force you to cite these papers, but we appreciate if you do
You receive ORCA, which is the product of decades of hard work by many enthusiastic individuals, for free
The only thing we kindly ask in return is that you cite our papers,
We deeply appreciate it, if you show your appreciation for ORCA by not just citing the generic ORCA reference.

Please note that relegating all ORCA citations to the supporting information does *not* help us.
SI sections are not indexed - citations you put there will not count into any citation statistics
But we need these citations in order to attract the funding resources that allow us to do what we are doing

Therefore, if you are a happy ORCA user, please consider citing a few of the papers listed below in the main body of your paper

In addition to the list printed below, the program has created the file orca.bibtex that contains the list in bibtex format
You can import this file easily into all common literature databanks and citation aid programs


List of essential papers. We consider these as the minimum necessary citations

  1. Neese, F.
     Software update: the ORCA program system, version 6.0
     WIRES Comput. Molec. Sci. 2025 15(1), e70019
     doi.org/10.1002/wcms.7019

List of papers to cite with high priority. The work reported in these papers was absolutely
necessary for this run to complete.
Our perspective: the developers of density functionals and basis sets usually get cited in chemistry papers
Good! But without the algorithms to do something with them, the functionals or basis sets would not do anything.
Hence, in our opinion, the algorithm design and method developments papers are equally worthy of getting cited

  1. Neese, F.
     An improvement of the resolution of the identity approximation for the formation of the Coulomb matrix
     J. Comp. Chem. 2003 24(14), 1740-1747
     doi.org/10.1002/jcc.10318
  2. Neese, F.; Wennmohs, F.; Hansen, A.; Becker, U.
     Efficient, approximate and parallel Hartree-Fock and hybrid DFT calculations. A 'chain-of-spheres' algorithm for the Hartree-Fock exchange
     Chem. Phys. 2009 356(1-3), 98-109
     doi.org/10.1016/j.chemphys.2008.10.036
  3. Grimme, S.; Antony, J.; Ehrlich, S.; Krieg, H.
     A consistent and accurate ab initio parametrization of density functional dispersion correction (DFT-D) for the 94 elements H-Pu
     J. Chem. Phys. 2010 132 , 154104
     doi.org/10.1063/1.3382344
  4. Grimme, S.; Ehrlich, S.; Goerigk, L.
     Effect of the damping function in dispersion corrected density functional theory
     J. Comput. Chem. 2011 32(7), 1456-1465
     doi.org/10.1002/jcc.21759
  5. Bykov, D.; Petrenko, T.; Izsak, R.; Kossmann, S.; Becker, U.; Valeev, E.; Neese, F.
     Efficient implementation of the analytic second derivatives of Hartree-Fock and hybrid DFT energies: a detailed analysis of different approximations
     Molec. Phys. 2015 113 , 1961-1977
     doi.org/10.1080/00268976.2015.1025114
  6. Garcia-Rates, M.; Neese, F.
     Efficient implementation of the analytical second derivatives of hartree-fock and hybrid DFT energies within the framework of the conductor-like polarizable continuum model
     J. Comput. Chem. 2019 40 , 1816-1828
     doi.org/10.1002/jcc.25833
  7. Garcia-Rates, M.; Neese, F.
     Effect of the Solute Cavity on the Solvation Energy and its Derivatives within the Framework of the Gaussian Charge Scheme
     J. Comput. Chem. 2020 41 , 922-939
     doi.org/10.1002/jcc.26139
  8. Helmich-Paris, B.; de Souza, B.; Neese, F.; Izsák, R.
     An improved chain of spheres for exchange algorithm
     J. Chem. Phys. 2021 155(10), 104109
     doi.org/10.1063/5.0058766
  9. Neese, F.
     The SHARK Integral Generation and Digestion System
     J. Comp. Chem. 2022 44(3), 381
     doi.org/10.1002/jcc.26942

List of suggested additional citations. These are papers that are important in the 'surrounding' of 
of this run, or papers that preceded the highly important papers. If you like your results we are grateful for a citation.

  1. Izsak, R.; Neese, F.
     An overlap fitted chain of spheres exchange method
     J. Chem. Phys. 2011 135 , 144105
     doi.org/10.1063/1.3646921
  2. Izsak, R.; Hansen, A.; Neese, F.
     The resolution of identity and chain of spheres approximations for the LPNO-CCSD singles Fock term
     Molec. Phys. 2012 110 , 2413-2417
     doi.org/10.1080/00268976.2012.687466
  3. Neese, F.
     The ORCA program system
     WIRES Comput. Molec. Sci. 2012 2(1), 73-78
     doi.org/10.1002/wcms.81
  4. Izsak, R.; Neese, F.; Klopper, W.
     Robust fitting techniques in the chain of spheres approximation to the Fock exchange: The role of the complementary space
     J. Chem. Phys. 2013 139 , 
     doi.org/10.1063/1.4819264
  5. Neese, F.
     Software update: the ORCA program system, version 4.0
     WIRES Comput. Molec. Sci. 2018 8(1), 1-6
     doi.org/10.1002/wcms.1327
  6. Neese, F.; Wennmohs, F.; Becker, U.; Riplinger, C.
     The ORCA quantum chemistry program package
     J. Chem. Phys. 2020 152(22), 224108
     doi.org/10.1063/5.0004608
  7. Neese, F.
     Software update: The ORCA program system—Version 5.0
     WIRES Comput. Molec. Sci. 2022 12(1), e1606
     doi.org/10.1002/wcms.1606

List of optional additional citations

  1. Neese, F.
     Approximate second-order SCF convergence for spin unrestricted wavefunctions
     Chem. Phys. Lett. 2000 325(1-3), 93-98
     doi.org/10.1016/s0009-2614(00)00662-x

Timings for individual modules:

Sum of individual times          ...    21369.991 sec (= 356.167 min)
Startup calculation              ...     1509.120 sec (=  25.152 min)   7.1 %
SCF iterations                   ...    17402.133 sec (= 290.036 min)  81.4 %
Property integrals               ...      448.642 sec (=   7.477 min)   2.1 %
SCF Response                     ...      571.657 sec (=   9.528 min)   2.7 %
Property calculations            ...      275.736 sec (=   4.596 min)   1.3 %
SCF Gradient evaluation          ...     1162.316 sec (=  19.372 min)   5.4 %
Geometry relaxation              ...        0.386 sec (=   0.006 min)   0.0 %
                             ****ORCA TERMINATED NORMALLY****
TOTAL RUN TIME: 0 days 5 hours 58 minutes 55 seconds 74 msec
