
                                 *****************
                                 * O   R   C   A *
                                 *****************

                                            #,                                       
                                            ###                                      
                                            ####                                     
                                            #####                                    
                                            ######                                   
                                           ########,                                 
                                     ,,################,,,,,                         
                               ,,#################################,,                 
                          ,,##########################################,,             
                       ,#########################################, ''#####,          
                    ,#############################################,,   '####,        
                  ,##################################################,,,,####,       
                ,###########''''           ''''###############################       
              ,#####''   ,,,,##########,,,,          '''####'''          '####       
            ,##' ,,,,###########################,,,                        '##       
           ' ,,###''''                  '''############,,,                           
         ,,##''                                '''############,,,,        ,,,,,,###''
      ,#''                                            '''#######################'''  
     '                                                          ''''####''''         
             ,#######,   #######,   ,#######,      ##                                
            ,#'     '#,  ##    ##  ,#'     '#,    #''#        ,####,    ,#,          
            ##       ##  ##   ,#'  ##            #'  '#       #'       ,# #          
            ##       ##  #######   ##           ,######,      #####,      #          
            '#,     ,#'  ##    ##  '#,     ,#' ,#      #,     #,   #      #          
             '#######'   ##     ##  '#######'  #'      '#     '####' #    #          



                #########################################################
                #                        -***-                          #
                #          Department of theory and spectroscopy        #
                #                                                       #
                #                      Frank Neese                      #
                #                                                       #
                #     Directorship, Architecture, Infrastructure        #
                #                    SHARK, DRIVERS                     #
                #        Core code/Algorithms in most modules           #
                #                                                       #
                #        Max Planck Institute fuer Kohlenforschung      #
                #                Kaiser Wilhelm Platz 1                 #
                #                 D-45470 Muelheim/Ruhr                 #
                #                      Germany                          #
                #                                                       #
                #                  All rights reserved                  #
                #                        -***-                          #
                #########################################################


                         Program Version 6.1.0-f.0  -   RELEASE   -


 With contributions from (in alphabetic order):
[Max-Planck-Institut fuer Kohlenforschung]                               
  Daniel Aravena         : Magnetic Suceptibility                        
  Michael Atanasov       : Ab Initio Ligand Field Theory (pilot matlab implementation)
  Alexander A. Auer      : GIAO ZORA, VPT2 properties, NMR spectrum      
  Ute Becker             : All parallelization in ORCA, NUMFREQ, NUMCALC 
  Giovanni Bistoni       : ED, misc. LED, open-shell LED, HFLD           
  Dmytro Bykov           : pre 5.0 version of the SCF Hessian            
  Marcos Casanova-Páez   : Triplet and SCS-CIS(D). UHF-(DLPNO)-IP/EA/STEOM-CCSD. UHF-CVS-IP/STEOM-CCSD   
  Vijay G. Chilkuri      : MRCI spin determinant printing, contributions to CSF-ICE 
  Pauline Colinet        : FMM embedding                                 
  Dipayan Datta          : RHF DLPNO-CCSD density                        
  Achintya Kumar Dutta   : EOM-CC, STEOM-CC                              
  Nicolas Foglia         : Exact transition moments, OPA infrastructure, MCD improvements    
  Dmitry Ganyushin       : Spin-Orbit,Spin-Spin,Magnetic field MRCI      
  Miquel Garcia-Rates    : C-PCM and meta-GGA Hessian, CCSD/C-PCM, Gaussian charge scheme 
  Tiago L. C. Gouveia    : GS-ROHF, GS-ROCIS                             
  Yang Guo               : DLPNO-NEVPT2, F12-NEVPT2, CIM, IAO-localization        
  Andreas Hansen         : Spin unrestricted coupled pair/coupled cluster methods 
  Ingolf Harden          : AUTO-CI MPn and infrastructure                
  Benjamin Helmich-Paris : MC-RPA, TRAH-(SCF,CASSCF), AVAS, COSX integrals, SCF dyn. polar., MC-PDFT, srDFT 
  Lee Huntington         : MR-EOM, pCC                                   
  Robert Izsak           : Overlap fitted RIJCOSX, COSX-SCS-MP3, EOM     
  Riya Kayal             : Wick's Theorem for AUTO-CI, AUTO-CI UHF-CCSDT 
  Emily Kempfer          : AUTO-CI RHF CISDT and CCSDT, approximate NEVPT4
  Christian Kollmar      : KDIIS, OOCD, Brueckner-CCSD(T), CCSD density, CASPT2, CASPT2-K, improved NEVPT2 
  Axel Koslowski         : Symmetry handling                             
  Simone Kossmann        : meta-GGA functionals, TD-DFT gradient, OOMP2, (MP2 Hessian; deprecated post 5.0) 
  Lucas Lang             : DCDCAS, Hyperfine gauge corrections, ICE-SOC+SSC
  Marvin Lechner         : AUTO-CI (C++ implementation), FIC-MRCC        
  Spencer Leger          : CASSCF response                               
  Dagmar Lenk            : GEPOL surface, SMD, ORCA-2-JSON               
  Dimitrios Liakos       : Extrapolation schemes; Compound Job, Property file
  Dimitrios Manganas     : Further ROCIS development; embedding schemes. LFT, Crystal Embedding 
  Dimitrios Pantazis     : SARC Basis sets                               
  Anastasios Papadopoulos: AUTO-CI, single reference methods and gradients 
  Taras Petrenko         : pre 6.0 DFT Hessian and TD-DFT gradient,  ECA, NRVS 
  Petra Pikulova         : Analytic Raman intensities                    
  Peter Pinski           : DLPNO-MP2, DLPNO-MP2 Gradient                 
  Shashank Vittal Rao    : ES-AILFT, MagRelax                            
  Christoph Reimann      : Effective Core Potentials                     
  Marius Retegan         : Local ZFS, SOC                                
  Christoph Riplinger    : Optimizer, TS searches, QM/MM, DLPNO-CCSD(T), (RO)-DLPNO pert. Triples 
  Michael Roemelt        : Original ROCIS implementation, recursive CI coupling coefficients
  Masaaki Saitow         : Open-shell DLPNO-CCSD energy and density      
  Barbara Sandhoefer     : DKH picture change effects                    
  Yorick L. A. Schmerwitz: GMF and freeze-and-release deltaSCF, NEB S-IDPP initial path                    
  Kantharuban Sivalingam : CASSCF convergence/infrastructure, NEVPT2, NEVPT3, NEVPT4(SD), FIC-MRCI and CEPA variants
  Bernardo de Souza      : ESD, SOC TD-DFT                               
  Georgi L. Stoychev     : AutoAux, RI-MP2 NMR, DLPNO-MP2 response, X2C  
  Van Anh Tran           : RI-MP2 g-tensors                              
  Willem Van den Heuvel  : Paramagnetic NMR                              
  Zikuan Wang            : NOTCH, Electric field optimization            
  Frank Wennmohs         : Technical directorship and infrastructure     
  Hang Xu                : AUTO-CI-Response properties                   
                                                                         
[FACCTs GmbH]                                                            
  Markus Bursch, Nicolas Foglia, Miquel Garcia-Rates, Ingolf Harden, Hagen Neugebauer, Anastasios Papadopoulos, 
  Christoph Riplinger, Bernardo de Souza, Georgi L. Stoychev                                                    
                                                                 
  APM, various basis sets, CI-OPT, improved COSX, DLPNO-Multilevel,           
  DOCKER, DRACO, updates on ESD, Fragmentator, GOAT, IRC, LR-CPCM, L-BFGS, MBIS, meta-GGA TD-DFT gradient, ML-optimized integration grids, 
  MM, NACMEs, nearIR, NEB, NEB-TS, NL-DFT gradient (VV10), 2- and 3-layer-ONIOM, interface openCOSMO-RS, QMMM,   
  Crystal-QMMM, RESP, rigid body optimization, SF, symmetry and pop. for TD-DFT, various functionals, SOLVATOR                                   
                                                                         
[Other institutions]                                                     
  V. Asgeirsson          : NEB                                           
  Christoph Bannwarth    : sTDA-DFT, sTD-DFT, PBEh-3c, B97-3c, D3        
  Giovanni Bistoni       : ETS/NOCV, ADLD/ADEX, COVALED                  
  Martin Brehm           : Molecular dynamics                            
  Ronald Cardenas        : ETS/NOCV                                      
  Martina Colucci        : COVALED                                       
  Sebastian Ehlert       : rSCAN, r2SCAN, r2SCAN-3c, D4, dhf basis sets  
  Marvin Friede          : D4 for Fr, Ra, Ac-Lr                          
  Lars Goerigk           : TD-DFT with DH, B97 family of functionals     
  Stefan Grimme          : VdW corrections, initial TS optimization, DFT functionals, gCP, sTDA/sTD-DF 
  Waldemar Hujo          : DFT-NL                                        
  H. Jonsson             : NEB                                           
  Holger Kruse           : gCP                                           
  Marcel Mueller         : wB97X-3c, vDZP basis set                      
  Hagen Neugebauer       : wr2SCAN, Native XTB                           
  Gianluca Regni         : ADLD/ADEX                                     
  Tobias Risthaus        : pre 6.0 range-separated hybrid DFT and stability analysis
  Lukas Wittmann         : regularized MP2, r2SCAN double-hybrids, wr2SCAN        
                                                                         
We gratefully acknowledge several colleagues who have allowed us to      
interface, adapt or use parts of their codes:                            
  Ed Valeev, F. Pavosevic, A. Kumar             : LibInt (2-el integral package), F12 methods 
  Garnet Chan, S. Sharma, J. Yang, R. Olivares  : DMRG                   
  Ulf Ekstrom                                   : XCFun DFT Library      
  Mihaly Kallay                                 : mrcc  (arbitrary order and MRCC methods)
  Frank Weinhold                                : gennbo (NPA and NBO analysis)           
  Simon Mueller                                 : openCOSMO-RS                            
  Christopher J. Cramer and Donald G. Truhlar   : smd solvation model                     
  S Lehtola, MJT Oliveira, MAL Marques          : LibXC Library                           
  Liviu Ungur et al                             : ANISO software                          


 Your calculation uses the libint2 library for the computation of 2-el integrals
 For citations please refer to: http://libint.valeyev.net

 Your ORCA version has been built with support for libXC version: 7.0.0
 For citations please refer to: https://libxc.gitlab.io

 This ORCA versions uses:
   CBLAS   interface :  Fast vector & matrix operations
   LAPACKE interface :  Fast linear algebra routines
   SCALAPACK package :  Parallel linear algebra routines
   Shared memory     :  Shared parallel matrices
   BLAS/LAPACK       :  OpenBLAS 0.3.29  USE64BITINT DYNAMIC_ARCH NO_AFFINITY Zen SINGLE_THREADED
        Core in use  :  Zen
   Copyright (c) 2011-2014, The OpenBLAS Project


  ***********************************
  * Starting time: Fri Oct 17 07:59:04 2025
  * Host name:     mc077.hpc.nesi.org.nz
  * Process ID:    3133373
  * Working dir.:  /nesi/nobackup/nesi99999/geoffreyweal/ORCA_tutorial/NEB/Step2B_3_Optimise_Reactant_from_Product_without_constraints
  ***********************************

NOTE: MaxCore=2000 MB was set to SCF,MP2,MDCI,CIPSI,MRCI,RASCI and CIS
      => If you want to overwrite this, your respective input block should be placed after the MaxCore statement


***************************************
The coordinates will be read from file: reactant_opt_constrained.xyz
***************************************


Your calculation utilizes the atom-pairwise dispersion correction
with the Becke-Johnson damping scheme (D3BJ)


Warning: RI is on but no J-basis has been assigned. Assigning Def2/J (nothing to worry about!)
================================================================================

----- Orbital basis set information -----
Your calculation utilizes the basis: def2-TZVP
   F. Weigend and R. Ahlrichs, Phys. Chem. Chem. Phys. 7, 3297 (2005).

----- AuxJ basis set information -----
Your calculation utilizes the auxiliary basis: def2/J
   H-Rn: F. Weigend, Phys. Chem. Chem. Phys. 8, 1057 (2006).
   Fr-Lr: K. Eichkorn, F. Weigend, O. Treutler, R. Ahlrichs; Theor. Chem. Acc. 97, 119 (1997).

================================================================================
                                        WARNINGS
                       Please study these warnings very carefully!
================================================================================


WARNING: Geometry Optimization
  ===> : Switching off AutoStart
         For restart on a previous wavefunction, please use MOREAD

================================================================================
                                       INPUT FILE
================================================================================
NAME = orca.inp
|  1> !B3LYP DEF2-TZVP D3BJ 
|  2> !OPT FREQ TightOPT TightSCF defgrid2
|  3> %SCF
|  4>     MaxIter 2000       # Here setting MaxIter to a very high number. Intended for systems that require sometimes 1000 iterations before converging (very rare).
|  5>     DIISMaxEq 5        # Default value is 5. A value of 15-40 necessary for difficult systems.
|  6>     directresetfreq 15 # Default value is 15. A value of 1 (very expensive) is sometimes required. A value between 1 and 15 may be more cost-effective.
|  7> END
|  8> %CPCM EPSILON 6.02 REFRAC 1.3723 END
|  9> %PAL NPROCS 32 END
| 10> %maxcore 2000 # This indicates you want ORCA to use only 2GB per core maximum, so ORCA will use only 2GB*32=64GB of memory in total.
| 11> * xyzfile 1 1 reactant_opt_constrained.xyz                           ****END OF INPUT****
================================================================================

                       *****************************
                       * Geometry Optimization Run *
                       *****************************

Geometry optimization settings:
Update method            Update   .... BFGS
Choice of coordinates    CoordSys .... (2022) Redundant Internals
Initial Hessian          InHess   .... Almloef's Model
Max. no of cycles        MaxIter  .... 54

Convergence Tolerances:
Energy Change            TolE     ....  1.0000e-06 Eh
Max. Gradient            TolMAXG  ....  1.0000e-04 Eh/bohr
RMS Gradient             TolRMSG  ....  3.0000e-05 Eh/bohr
Max. Displacement        TolMAXD  ....  1.0000e-03 bohr
RMS Displacement         TolRMSD  ....  6.0000e-04 bohr
Strict Convergence                .... False

------------------------------------------------------------------------------
                        ORCA OPTIMIZATION COORDINATE SETUP
------------------------------------------------------------------------------

The optimization will be done in redundant internal coordinates (2022)
Making redundant internal coordinates   ...  (2022 redundants) done
Evaluating the initial hessian          ...  (Almloef) done
Evaluating the coordinates              ...  done
Calculating the B-matrix                .... done
Calculating the G-matrix                .... done
The number of degrees of freedom        ....  134

    -----------------------------------------------------------------
                    Redundant Internal Coordinates


    -----------------------------------------------------------------
         Definition                    Initial Value    Approx d2E/dq
    -----------------------------------------------------------------
      1. B(C   1,C   0)                  1.3829         0.641308   
      2. B(C   2,C   1)                  1.4072         0.586616   
      3. B(C   3,C   2)                  1.4078         0.585201   
      4. B(C   4,C   3)                  1.3800         0.648253   
      5. B(C   5,C   4)                  1.3973         0.608261   
      6. B(C   5,C   0)                  1.3923         0.619555   
      7. B(H   6,C   0)                  1.0824         0.370282   
      8. B(H   7,C   5)                  1.0824         0.370348   
      9. B(H   8,C   1)                  1.0831         0.369310   
     10. B(H   9,C   3)                  1.0868         0.364326   
     11. B(H  10,C   4)                  1.0826         0.370045   
     12. B(C  11,C   2)                  1.5063         0.407554   
     13. B(N  12,C  11)                  1.4976         0.376921   
     14. B(H  13,N  12)                  1.0172         0.421384   
     15. B(H  14,N  12)                  1.0161         0.423150   
     16. B(H  15,C  11)                  1.0903         0.359739   
     17. B(H  16,C  11)                  1.0892         0.361214   
     18. B(Cu 17,N  12)                  1.9979         0.606940   
     19. B(Cu 17,C  11)                  2.8092         0.034401   
     20. B(Cu 17,C   3)                  2.5703         0.082760   
     21. B(Cu 17,C   2)                  2.7302         0.045987   
     22. A(C   5,C   0,H   6)          120.0292         0.354537   
     23. A(C   1,C   0,H   6)          120.2490         0.356619   
     24. A(C   1,C   0,C   5)          119.7216         0.436659   
     25. A(C   0,C   1,C   2)          120.1297         0.432386   
     26. A(C   2,C   1,H   8)          119.2183         0.351117   
     27. A(C   0,C   1,H   8)          120.6513         0.356460   
     28. A(C   1,C   2,Cu 17)          120.8816         0.307428   
     29. A(C   1,C   2,C   3)          119.7004         0.425344   
     30. A(C   3,C   2,Cu 17)           68.4009         0.307309   
     31. A(C  11,C   2,Cu 17)           77.1356         0.290145   
     32. A(C   3,C   2,C  11)          119.1442         0.398731   
     33. A(C   1,C   2,C  11)          120.9235         0.398900   
     34. A(C   2,C   3,Cu 17)           80.9836         0.338362   
     35. A(C   4,C   3,H   9)          120.4057         0.356289   
     36. A(C   2,C   3,H   9)          119.7599         0.350170   
     37. A(C   2,C   3,C   4)          119.7060         0.433037   
     38. A(C   4,C   3,Cu 17)          115.1636         0.344205   
     39. A(H   9,C   3,Cu 17)           77.7248         0.282735   
     40. A(C   3,C   4,H  10)          120.1116         0.357233   
     41. A(C   3,C   4,C   5)          120.1526         0.436059   
     42. A(C   5,C   4,H  10)          119.7207         0.353395   
     43. A(C   0,C   5,C   4)          120.5890         0.432520   
     44. A(C   0,C   5,H   7)          119.8759         0.354547   
     45. A(C   4,C   5,H   7)          119.5349         0.353444   
     46. A(H  15,C  11,H  16)          108.5937         0.290935   
     47. A(N  12,C  11,H  16)          107.1385         0.323018   
     48. A(C   2,C  11,H  16)          110.5110         0.329169   
     49. A(N  12,C  11,H  15)          110.4097         0.322801   
     50. A(C   2,C  11,H  15)          111.3036         0.328947   
     51. A(C   2,C  11,N  12)          108.8005         0.367069   
     52. A(H  16,C  11,Cu 17)          101.4863         0.247516   
     53. A(H  15,C  11,Cu 17)          145.7792         0.247369   
     54. A(N  12,C  11,Cu 17)           43.1070         0.272531   
     55. A(C   2,C  11,Cu 17)           71.3483         0.277355   
     56. A(H  13,N  12,H  14)          106.4694         0.300901   
     57. A(C  11,N  12,H  14)          110.6795         0.328725   
     58. A(C  11,N  12,Cu 17)          106.0803         0.438394   
     59. A(C  11,N  12,H  13)          109.7800         0.328498   
     60. A(H  14,N  12,Cu 17)          116.0305         0.398133   
     61. A(H  13,N  12,Cu 17)          107.7034         0.397841   
     62. A(C  11,Cu 17,N  12)           30.8127         0.325669   
     63. A(C   3,Cu 17,N  12)           86.2857         0.377689   
     64. A(C   2,Cu 17,N  12)           59.8462         0.341739   
     65. A(C   3,Cu 17,C  11)           55.4895         0.240644   
     66. A(C   2,Cu 17,C  11)           31.5162         0.221759   
     67. A(C   2,Cu 17,C   3)           30.6154         0.250941   
     68. D(H   8,C   1,C   0,C   5)   -179.7408         0.028583   
     69. D(H   8,C   1,C   0,H   6)      0.4181         0.028583   
     70. D(C   2,C   1,C   0,H   6)   -179.8749         0.028583   
     71. D(C   2,C   1,C   0,C   5)     -0.0338         0.028583   
     72. D(C   3,C   2,C   1,C   0)      0.1350         0.025704   
     73. D(C   3,C   2,C   1,H   8)    179.8462         0.025704   
     74. D(Cu 17,C   2,C   1,C   0)    -81.0839         0.025704   
     75. D(C  11,C   2,C   1,C   0)   -174.2855         0.025704   
     76. D(C  11,C   2,C   1,H   8)      5.4257         0.025704   
     77. D(C   4,C   3,C   2,C  11)    174.2344         0.027477   
     78. D(H   9,C   3,C   2,C  11)     -9.8676         0.027477   
     79. D(C   4,C   3,C   2,Cu 17)    113.8996         0.027477   
     80. D(H   9,C   3,C   2,C   1)    175.6123         0.027477   
     81. D(H   9,C   3,C   2,Cu 17)    -70.2024         0.027477   
     82. D(C   4,C   3,C   2,C   1)     -0.2858         0.027477   
     83. D(H  10,C   4,C   3,H   9)      3.0469         0.031797   
     84. D(H  10,C   4,C   3,C   2)    178.9180         0.031797   
     85. D(C   5,C   4,C   3,Cu 17)     94.2731         0.031797   
     86. D(C   5,C   4,C   3,H   9)   -175.5362         0.031797   
     87. D(C   5,C   4,C   3,C   2)      0.3349         0.031797   
     88. D(H   7,C   5,C   4,H  10)      1.0049         0.025544   
     89. D(C   0,C   5,C   4,H  10)   -178.8240         0.025544   
     90. D(C   0,C   5,C   4,C   3)     -0.2352         0.025544   
     91. D(H   7,C   5,C   0,H   6)      0.0954         0.026559   
     92. D(H   7,C   5,C   4,C   3)    179.5937         0.025544   
     93. D(H   7,C   5,C   0,C   1)   -179.7461         0.026559   
     94. D(C   4,C   5,C   0,H   6)    179.9237         0.026559   
     95. D(C   4,C   5,C   0,C   1)      0.0822         0.026559   
     96. D(N  12,C  11,C   2,Cu 17)    -21.7379         0.013972   
     97. D(N  12,C  11,C   2,C   3)    -77.7053         0.013972   
     98. D(N  12,C  11,C   2,C   1)     96.7458         0.013972   
     99. D(H  16,C  11,C   2,C   1)   -145.8852         0.013972   
    100. D(H  15,C  11,C   2,Cu 17)   -143.6191         0.013972   
    101. D(H  15,C  11,C   2,C   3)    160.4135         0.013972   
    102. D(H  15,C  11,C   2,C   1)    -25.1354         0.013972   
    103. D(H  14,N  12,C  11,H  16)     38.0584         0.013816   
    104. D(H  14,N  12,C  11,H  15)    -80.0256         0.013816   
    105. D(H  14,N  12,C  11,C   2)    157.5514         0.013816   
    106. D(H  13,N  12,C  11,Cu 17)   -116.1028         0.013816   
    107. D(H  13,N  12,C  11,H  16)    155.3018         0.013816   
    108. D(H  13,N  12,C  11,H  15)     37.2178         0.013816   
    109. D(H  13,N  12,C  11,C   2)    -85.2052         0.013816   
    110. D(C   2,Cu 17,N  12,C  11)    -18.0691         0.010000   
    111. D(C   3,Cu 17,C  11,H  16)    -79.2273         0.010000   
    112. D(C   3,Cu 17,C  11,H  15)    129.4507         0.010000   
    113. D(C   3,Cu 17,C  11,C   2)     28.7583         0.010000   
    114. D(C   2,Cu 17,C  11,H  16)   -107.9856         0.010000   
    115. D(C   2,Cu 17,C  11,H  15)    100.6924         0.010000   
    116. D(N  12,Cu 17,C   3,C   2)    -28.5106         0.010000   
    117. D(C  11,Cu 17,C   3,H   9)     93.6958         0.010000   
    118. D(C  11,Cu 17,C   3,C   4)   -148.2664         0.010000   
    119. D(C  11,Cu 17,C   3,C   2)    -29.5931         0.010000   
    120. D(C   2,Cu 17,C   3,H   9)    123.2889         0.010000   
    121. D(C   2,Cu 17,C  11,N  12)    149.1326         0.010000   
    122. D(C   2,Cu 17,C   3,C   4)   -118.6733         0.010000   
    123. D(N  12,Cu 17,C   2,C   3)    146.5738         0.010000   
    124. D(N  12,Cu 17,C   2,C   1)   -100.8362         0.010000   
    125. D(C   3,Cu 17,C  11,N  12)    177.8909         0.010000   
    126. D(C  11,Cu 17,C   2,C   3)    128.8800         0.010000   
    127. D(C  11,Cu 17,C   2,C   1)   -118.5300         0.010000   
    128. D(C   3,Cu 17,C   2,C  11)   -128.8800         0.010000   
    129. D(C   2,Cu 17,N  12,H  13)     99.4285         0.010000   
    130. D(C   3,Cu 17,C   2,C   1)    112.5900         0.010000   
    131. D(C   3,Cu 17,N  12,H  14)   -125.0944         0.010000   
    132. D(C   3,Cu 17,N  12,H  13)    115.7561         0.010000   
    133. D(C   3,Cu 17,N  12,C  11)     -1.7415         0.010000   
    134. D(C   2,Cu 17,N  12,H  14)   -141.4220         0.010000   
    -----------------------------------------------------------------

Number of atoms                         .... 18
Number of degrees of freedom            .... 134


         *************************************************************
         *                GEOMETRY OPTIMIZATION CYCLE   1            *
         *************************************************************
---------------------------------
CARTESIAN COORDINATES (ANGSTROEM)
---------------------------------
  C     -2.988620    1.819329    1.605387
  C     -1.900138    2.666334    1.504382
  C     -0.727727    2.400106    2.235605
  C     -0.667116    1.266306    3.067942
  C     -1.760024    0.429263    3.163972
  C     -2.919247    0.701852    2.432981
  H     -3.890694    2.021161    1.042237
  H     -3.768224    0.034995    2.510739
  H     -1.939148    3.542178    0.868352
  H      0.260812    1.020018    3.577331
  H     -1.714517   -0.453910    3.788410
  C      0.420312    3.375268    2.239568
  N      0.320943    4.232781    3.463300
  H     -0.299640    5.018480    3.283608
  H      1.226608    4.628934    3.698357
  H      0.418379    3.993049    1.341216
  H      1.370535    2.845853    2.294932
  Cu    -0.529929    3.095502    4.868359

----------------------------
CARTESIAN COORDINATES (A.U.)
----------------------------
  NO LB      ZA    FRAG     MASS         X           Y           Z
   0 C     6.0000    0    12.011   -5.647672    3.438033    3.033742
   1 C     6.0000    0    12.011   -3.590740    5.038640    2.842871
   2 C     6.0000    0    12.011   -1.375204    4.535544    4.224681
   3 C     6.0000    0    12.011   -1.260667    2.392972    5.797570
   4 C     6.0000    0    12.011   -3.325963    0.811190    5.979041
   5 C     6.0000    0    12.011   -5.516578    1.326308    4.597668
   6 H     1.0000    0     1.008   -7.352346    3.819440    1.969543
   7 H     1.0000    0     1.008   -7.120912    0.066131    4.744609
   8 H     1.0000    0     1.008   -3.664459    6.693746    1.640948
   9 H     1.0000    0     1.008    0.492864    1.927555    6.760177
  10 H     1.0000    0     1.008   -3.239967   -0.857766    7.159058
  11 C     6.0000    0    12.011    0.794275    6.378331    4.232171
  12 N     7.0000    0    14.007    0.606493    7.998798    6.544689
  13 H     1.0000    0     1.008   -0.566237    9.483553    6.205119
  14 H     1.0000    0     1.008    2.317954    8.747417    6.988882
  15 H     1.0000    0     1.008    0.790622    7.545769    2.534530
  16 H     1.0000    0     1.008    2.589935    5.377883    4.336792
  17 Cu   29.0000    0    63.550   -1.001421    5.849652    9.199865

--------------------------------
INTERNAL COORDINATES (ANGSTROEM)
--------------------------------
 C      0   0   0     0.000000000000     0.00000000     0.00000000
 C      1   0   0     1.382899502957     0.00000000     0.00000000
 C      2   1   0     1.407164440390   120.12969542     0.00000000
 C      3   2   1     1.407821536232   119.70036297     0.13502612
 C      4   3   2     1.379967538653   119.70597584   359.71424240
 C      1   2   3     1.392293031198   119.72164184   359.96621618
 H      1   2   3     1.082410023104   120.24898344   180.12506623
 H      6   1   2     1.082361300898   119.87589279   180.25387220
 H      2   1   3     1.083125065378   120.65134512   180.29300367
 H      4   3   2     1.086824057261   119.75988727   175.61226722
 H      5   4   3     1.082584380066   120.11159537   178.91804365
 C      3   2   1     1.506302806704   120.92354392   185.71446710
 N     12   3   2     1.497572423634   108.80047601    96.74579168
 H     13  12   3     1.017218839136   109.78001064   274.79479133
 H     13  12   3     1.016080092361   110.67949797   157.55136964
 H     12   3   2     1.090273218929   111.30359967   334.86462001
 H     12   3   2     1.089159035849   110.51101806   214.11477423
 Cu    13  12   3     1.997893042708   106.08028126    30.89754902

---------------------------
INTERNAL COORDINATES (A.U.)
---------------------------
 C      0   0   0     0.000000000000     0.00000000     0.00000000
 C      1   0   0     2.613301331325     0.00000000     0.00000000
 C      2   1   0     2.659155417731   120.12969542     0.00000000
 C      3   2   1     2.660397148914   119.70036297     0.13502612
 C      4   3   2     2.607760721756   119.70597584   359.71424240
 C      1   2   3     2.631052527131   119.72164184   359.96621618
 H      1   2   3     2.045458508278   120.24898344   180.12506623
 H      6   1   2     2.045366436652   119.87589279   180.25387220
 H      2   1   3     2.046809742350   120.65134512   180.29300367
 H      4   3   2     2.053799823981   119.75988727   175.61226722
 H      5   4   3     2.045787995186   120.11159537   178.91804365
 C      3   2   1     2.846499779427   120.92354392   185.71446710
 N     12   3   2     2.830001746381   108.80047601    96.74579168
 H     13  12   3     1.922265024232   109.78001064   274.79479133
 H     13  12   3     1.920113104691   110.67949797   157.55136964
 H     12   3   2     2.060317794925   111.30359967   334.86462001
 H     12   3   2     2.058212294040   110.51101806   214.11477423
 Cu    13  12   3     3.775470695584   106.08028126    30.89754902

---------------------
BASIS SET INFORMATION
---------------------
There are 4 groups of distinct atoms

 Group   1 Type C   : 11s6p2d1f contracted to 5s3p2d1f pattern {62111/411/11/1}
 Group   2 Type H   : 5s1p contracted to 3s1p pattern {311/1}
 Group   3 Type N   : 11s6p2d1f contracted to 5s3p2d1f pattern {62111/411/11/1}
 Group   4 Type Cu  : 17s11p7d1f contracted to 6s4p4d1f pattern {842111/6311/4111/1}

Atom   0C    basis set group =>   1
Atom   1C    basis set group =>   1
Atom   2C    basis set group =>   1
Atom   3C    basis set group =>   1
Atom   4C    basis set group =>   1
Atom   5C    basis set group =>   1
Atom   6H    basis set group =>   2
Atom   7H    basis set group =>   2
Atom   8H    basis set group =>   2
Atom   9H    basis set group =>   2
Atom  10H    basis set group =>   2
Atom  11C    basis set group =>   1
Atom  12N    basis set group =>   3
Atom  13H    basis set group =>   2
Atom  14H    basis set group =>   2
Atom  15H    basis set group =>   2
Atom  16H    basis set group =>   2
Atom  17Cu   basis set group =>   4
---------------------------------
AUXILIARY/J BASIS SET INFORMATION
---------------------------------
There are 4 groups of distinct atoms

 Group   1 Type C   : 12s5p4d2f1g contracted to 6s4p3d1f1g pattern {711111/2111/211/2/1}
 Group   2 Type H   : 5s2p1d contracted to 3s1p1d pattern {311/2/1}
 Group   3 Type N   : 12s5p4d2f1g contracted to 6s4p3d1f1g pattern {711111/2111/211/2/1}
 Group   4 Type Cu  : 19s5p5d3f3g contracted to 8s5p4d3f3g pattern {121111111/11111/2111/111/111}

Atom   0C    basis set group =>   1
Atom   1C    basis set group =>   1
Atom   2C    basis set group =>   1
Atom   3C    basis set group =>   1
Atom   4C    basis set group =>   1
Atom   5C    basis set group =>   1
Atom   6H    basis set group =>   2
Atom   7H    basis set group =>   2
Atom   8H    basis set group =>   2
Atom   9H    basis set group =>   2
Atom  10H    basis set group =>   2
Atom  11C    basis set group =>   1
Atom  12N    basis set group =>   3
Atom  13H    basis set group =>   2
Atom  14H    basis set group =>   2
Atom  15H    basis set group =>   2
Atom  16H    basis set group =>   2
Atom  17Cu   basis set group =>   4


           ************************************************************
           *        Program running with 32 parallel MPI-processes    *
           *              working on a common directory               *
           ************************************************************
------------------------------------------------------------------------------
                             ORCA STARTUP CALCULATIONS
                           -- RI-GTO INTEGRALS CHOSEN --
------------------------------------------------------------------------------
------------------------------------------------------------------------------
                   ___                                                        
                  /   \      - P O W E R E D   B Y -                         
                 /     \                                                     
                 |  |  |   _    _      __       _____    __    __             
                 |  |  |  | |  | |    /  \     |  _  \  |  |  /  |          
                  \  \/   | |  | |   /    \    | | | |  |  | /  /          
                 / \  \   | |__| |  /  /\  \   | |_| |  |  |/  /          
                |  |  |   |  __  | /  /__\  \  |    /   |      \           
                |  |  |   | |  | | |   __   |  |    \   |  |\   \          
                \     /   | |  | | |  |  |  |  | |\  \  |  | \   \       
                 \___/    |_|  |_| |__|  |__|  |_| \__\ |__|  \__/        
                                                                              
                      - O R C A' S   B I G   F R I E N D -                    
                                      &                                       
                       - I N T E G R A L  F E E D E R -                       
                                                                              
 v1 FN, 2020, v2 2021, v3 2022-2024                                           
------------------------------------------------------------------------------


----------------------
SHARK INTEGRAL PACKAGE
----------------------

Number of atoms                             ...     18
Number of basis functions                   ...    347
Number of shells                            ...    139
Maximum angular momentum                    ...      3
Integral batch strategy                     ... SHARK/LIBINT Hybrid
RI-J (if used) integral strategy            ... SPLIT-RIJ (Revised 2003 algorithm where possible)
Printlevel                                  ...      1
Contraction scheme used                     ... SEGMENTED contraction
Prescreening option                         ... SCHWARTZ
   Thresh                                   ... 2.500e-11
   Tcut                                     ... 2.500e-12
   Tpresel                                  ... 2.500e-12 
Coulomb Range Separation                    ... NOT USED
Exchange Range Separation                   ... NOT USED
Multipole approximations                    ... NOT USED
Finite Nucleus Model                        ... NOT USED
CABS basis                                  ... NOT available
Auxiliary Coulomb fitting basis             ... AVAILABLE
   # of basis functions in Aux-J            ...    582
   # of shells in Aux-J                     ...    188
   Maximum angular momentum in Aux-J        ...      4
Auxiliary J/K fitting basis                 ... NOT available
Auxiliary Correlation fitting basis         ... NOT available
Auxiliary 'external' fitting basis          ... NOT available

Checking pre-screening integrals            ... done (  0.0 sec) Dimension = 139
   => SHARK Basis and OBASIS are compatible. Storing Pre-screening
Shell pair information
Shell pair cut-off parameter TPreSel        ...   2.5e-12
Total number of shell pairs                 ...      9730
Shell pairs after pre-screening             ...      8762
Total number of primitive shell pairs       ...     31637
Primitive shell pairs kept                  ...     20619
          la=0 lb=0:   2326 shell pairs
          la=1 lb=0:   2428 shell pairs
          la=1 lb=1:    655 shell pairs
          la=2 lb=0:   1338 shell pairs
          la=2 lb=1:    701 shell pairs
          la=2 lb=2:    203 shell pairs
          la=3 lb=0:    588 shell pairs
          la=3 lb=1:    311 shell pairs
          la=3 lb=2:    169 shell pairs
          la=3 lb=3:     43 shell pairs

Checking whether 4 symmetric matrices of dimension 347 fit in memory
:Max Core in MB      =   2000.00
 MB in use           =     14.55
 MB left             =   1985.45
 MB needed           =      1.84
 Data fit in memory  = YES
Calculating RI/J V-Matrix + Cholesky decomp.... done (  0.2 sec)
Calculating Nuclear repulsion               ... done (  0.0 sec) ENN=    633.731512321665 Eh

Diagonalization of the overlap matrix:
Smallest eigenvalue                        ... 7.860e-06
Time for diagonalization                   ...    0.017 sec
Threshold for overlap eigenvalues          ... 1.000e-07
Number of eigenvalues below threshold      ... 0
Time for construction of square roots      ...    0.015 sec
Total time needed                          ...    0.037 sec

-------------------
DFT GRID GENERATION
-------------------

General Integration Accuracy     IntAcc      ... 4.388
Radial Grid Type                 RadialGrid  ... OptM3 with GC (2021)
Angular Grid (max. ang.)         AngularGrid ... 4 (Lebedev-302)
Angular grid pruning method      GridPruning ... 4 (adaptive)
Weight generation scheme         WeightScheme... mBecke (2022)
Basis function cutoff            BFCut       ... 1.0000e-11
Integration weight cutoff        WCut        ... 1.0000e-14
Partially contracted basis set               ... off
Rotationally invariant grid construction     ... off
Angular grids for H and He will be reduced by one unit
Core-polarized basis detected: some atoms will have their core
                               angular grid increased.

Total number of grid points                  ...    87958
Total number of batches                      ...     1383
Average number of points per batch           ...       63
Average number of grid points per atom       ...     4887

--------------------
COSX GRID GENERATION
--------------------

GRIDX 1
-------
General Integration Accuracy     IntAcc      ... 3.816
Radial Grid Type                 RadialGrid  ... OptM3 with GC (2021)
Angular Grid (max. ang.)         AngularGrid ... 1 (Lebedev-50)
Angular grid pruning method      GridPruning ... 4 (adaptive)
Weight generation scheme         WeightScheme... mBecke (2022)
Basis function cutoff            BFCut       ... 1.0000e-11
Integration weight cutoff        WCut        ... 1.0000e-14
Partially contracted basis set               ... on
Rotationally invariant grid construction     ... off
Angular grids for H and He will be reduced by one unit
Core-polarized basis detected: some atoms will have their core
                               angular grid increased.

Total number of grid points                  ...    15636
Total number of batches                      ...      131
Average number of points per batch           ...      119
Average number of grid points per atom       ...      869
UseSFitting                                  ... on

GRIDX 2
-------
General Integration Accuracy     IntAcc      ... 4.020
Radial Grid Type                 RadialGrid  ... OptM3 with GC (2021)
Angular Grid (max. ang.)         AngularGrid ... 2 (Lebedev-110)
Angular grid pruning method      GridPruning ... 4 (adaptive)
Weight generation scheme         WeightScheme... mBecke (2022)
Basis function cutoff            BFCut       ... 1.0000e-11
Integration weight cutoff        WCut        ... 1.0000e-14
Partially contracted basis set               ... on
Rotationally invariant grid construction     ... off
Angular grids for H and He will be reduced by one unit
Core-polarized basis detected: some atoms will have their core
                               angular grid increased.

Total number of grid points                  ...    26920
Total number of batches                      ...      220
Average number of points per batch           ...      122
Average number of grid points per atom       ...     1496
UseSFitting                                  ... on

GRIDX 3
-------
General Integration Accuracy     IntAcc      ... 4.338
Radial Grid Type                 RadialGrid  ... OptM3 with GC (2021)
Angular Grid (max. ang.)         AngularGrid ... 3 (Lebedev-194)
Angular grid pruning method      GridPruning ... 4 (adaptive)
Weight generation scheme         WeightScheme... mBecke (2022)
Basis function cutoff            BFCut       ... 1.0000e-11
Integration weight cutoff        WCut        ... 1.0000e-14
Partially contracted basis set               ... on
Rotationally invariant grid construction     ... off
Angular grids for H and He will be reduced by one unit
Core-polarized basis detected: some atoms will have their core
                               angular grid increased.

Total number of grid points                  ...    52098
Total number of batches                      ...      415
Average number of points per batch           ...      125
Average number of grid points per atom       ...     2894
UseSFitting                                  ... on
Grids setup in   1.7 sec
Initializing property integral containers    ... done (  0.0 sec)

SHARK setup successfully completed in   2.4 seconds

Maximum memory used throughout the entire STARTUP-calculation: 34.4 MB


           ************************************************************
           *        Program running with 32 parallel MPI-processes    *
           *              working on a common directory               *
           ************************************************************
-------------------------------------------------------------------------------
                                 ORCA GUESS
                   Start orbitals & Density for SCF / CASSCF
-------------------------------------------------------------------------------

------------
SCF SETTINGS
------------
Hamiltonian:
 Density Functional     Method          .... DFT(GTOs)
 Exchange Functional    Exchange        .... B88
   X-Alpha parameter    XAlpha          ....  0.666667
   Becke's b parameter  XBeta           ....  0.004200
 Correlation Functional Correlation     .... LYP
 LDA part of GGA corr.  LDAOpt          .... VWN-5
 Gradients option       PostSCFGGA      .... off
 Hybrid DFT is turned on
   Fraction HF Exchange ScalHFX         ....  0.200000
   Scaling of DF-GGA-X  ScalDFX         ....  0.720000
   Scaling of DF-GGA-C  ScalDFC         ....  0.810000
   Scaling of DF-LDA-C  ScalLDAC        ....  1.000000
   Perturbative correction              ....  0.000000
   NL short-range parameter             ....  4.800000
 RI-approximation to the Coulomb term is turned on
   Number of AuxJ basis functions       .... 582
   RIJ-COSX (HFX calculated with COS-X)).... on


General Settings:
 Integral files         IntName         .... orca
 Hartree-Fock type      HFTyp           .... RHF
 Total Charge           Charge          ....    1
 Multiplicity           Mult            ....    1
 Number of Electrons    NEL             ....   86
 Basis Dimension        Dim             ....  347
 Nuclear Repulsion      ENuc            ....    633.7315123217 Eh

Convergence Acceleration:
 AO-DIIS                CNVDIIS         .... on
   Start iteration      DIISMaxIt       ....    12
   Startup error        DIISStart       ....  0.200000
   # of expansion vecs  DIISMaxEq       ....     5
   Bias factor          DIISBfac        ....   1.050
   Max. coefficient     DIISMaxC        ....  10.000
 MO-DIIS                CNVKDIIS        .... off
 Trust-Rad. Augm. Hess. CNVTRAH         .... auto
   Auto Start mean grad. ratio tolernc. ....  1.125000
   Auto Start start iteration           ....    50
   Auto Start num. interpolation iter.  ....    10
   Max. Number of Micro iterations      ....    24
   Max. Number of Macro iterations      .... Maxiter - #DIIS iter
   Number of Davidson start vectors     ....     2
   Converg. threshold    (grad. norm)   ....   1.000e-05
   Grad. Scal. Fac. for Micro threshold ....   0.100
   Minimum threshold for Micro iter.    ....   1.000e-02
   NR start threshold (gradient norm)   ....   1.000e-04
   Initial trust radius                 ....   0.400
   Minimum AH scaling param. (alpha)    ....   1.000
   Maximum AH scaling param. (alpha)    .... 1000.000
   Quad. conv. algorithm                .... NR
   White noise on init. David. guess    .... on
   Maximum white noise                  ....   0.010
   Pseudo random numbers                .... off
   Inactive MOs                         .... canonical
   Orbital update algorithm             .... Taylor
   Preconditioner                       .... Diag
   Full preconditioner red. dimension   ....   250
 SOSCF                 CNVSOSCF           .... on
   Start iteration     SOSCFMaxIt         ....   150
   Startup grad/error  SOSCFStart         ....  0.003300
   Hessian update      SOSCFHessUp        .... L-BFGS
   Autom. constraints  SOSCFAutoConstrain .... off
 Level Shifting         CNVShift        .... on
   Level shift para.    LevelShift      ....    0.2500
   Turn off err/grad.   ShiftErr        ....    0.0010
 Zerner damping         CNVZerner       .... off
 Static damping         CNVDamp         .... on
   Fraction old density DampFac         ....    0.7000
   Max. Damping (<1)    DampMax         ....    0.9800
   Min. Damping (>=0)   DampMin         ....    0.0000
   Turn off err/grad.   DampErr         ....    0.1000

SCF Procedure:
 Maximum # iterations   MaxIter         ....  2000
 SCF integral mode      SCFMode         .... Direct
   Integral package                     .... SHARK and LIBINT hybrid scheme
 Reset frequency        DirectResetFreq ....    15
 Integral Threshold     Thresh          ....  2.500e-11 Eh
 Primitive CutOff       TCut            ....  2.500e-12 Eh

Convergence Tolerance:
 Convergence Check Mode ConvCheckMode   .... Total+1el-Energy
 Convergence forced     ConvForced      .... 0
 Energy Change          TolE            ....  1.000e-08 Eh
 1-El. energy change                    ....  1.000e-05 Eh
 Orbital Gradient       TolG            ....  1.000e-05
 Orbital Rotation angle TolX            ....  1.000e-05
 DIIS Error             TolErr          ....  5.000e-07

------------------------------
INITIAL GUESS: MODEL POTENTIAL
------------------------------
Loading Hartree-Fock densities                     ... done
Calculating cut-offs                               ... done
Initializing the effective Hamiltonian             ... done
Setting up the integral package (SHARK)            ... done
Starting the Coulomb interaction                   ... done (   0.1 sec)
Making the grid                                    ... done (   0.3 sec)
Mapping shells                                     ... done
Starting the XC term evaluation                    ... done (   0.0 sec)
  promolecular density results
     # of electrons  =     86.991938955
     EX              =   -111.073133720
     EC              =     -3.307344294
     EX+EC           =   -114.380478014
Transforming the Hamiltonian                       ... done (   0.0 sec)
Diagonalizing the Hamiltonian                      ... done (   0.0 sec)
Back transforming the eigenvectors                 ... done (   0.0 sec)
Now organizing SCF variables                       ... done
                      ------------------
                      INITIAL GUESS DONE (   0.5 sec)
                      ------------------
             **** ENERGY FILE WAS UPDATED (orca.en.tmp) ****
Finished Guess after   1.7 sec
Maximum memory used throughout the entire GUESS-calculation: 19.9 MB


           ************************************************************
           *        Program running with 32 parallel MPI-processes    *
           *              working on a common directory               *
           ************************************************************

-------------------------------------------------------------------------------------------
                                      ORCA LEAN-SCF
                              memory conserving SCF solver
-------------------------------------------------------------------------------------------

--------------------
CPCM SOLVATION MODEL
--------------------
CPCM parameters:
  Epsilon                                         ...       6.0200
  Refrac                                          ...       1.3723
  Rsolv                                           ...       1.3000
  Surface type                                    ... GAUSSIAN VDW
  Discretization scheme                           ... Constant charge density
    Threshold for H atoms                         ...       5.0000 (charges/Ang^2)
    Threshold for non-H atoms                     ...       5.0000 (charges/Ang^2)
  Epsilon function type                           ...         CPCM
Solvent:                                          ... CUSTOM
Radii:
  Scheme                                          ... Element-dependent radii
  Radius for C  used is    3.8550 Bohr (=   2.0400 Ang.)
  Radius for H  used is    2.4944 Bohr (=   1.3200 Ang.)
  Radius for N  used is    3.5149 Bohr (=   1.8600 Ang.)
  Radius for Cu used is    3.1747 Bohr (=   1.6800 Ang.)
Calculating surface                               ...        done! (  0.0s)
Cavity surface points                             ...         1660
Cavity Volume                                     ...    1078.8117
Cavity Surface-area                               ...     612.1498
Calculating surface distance matrix               ...        done! (  0.0s)
Performing Cholesky decomposition & store         ...        done! (  0.1s)
Overall time for CPCM initialization              ...                 0.1s

----------------------------------------D-I-I-S--------------------------------------------
Iteration    Energy (Eh)           Delta-E    RMSDP     MaxDP     DIISErr   Damp  Time(sec)
-------------------------------------------------------------------------------------------
               ***  Starting incremental Fock matrix formation  ***
    1    -1966.9363191218635620     0.00e+00  8.87e-03  4.19e-02  2.25e-01  0.700   1.7
    2    -1967.0375524989376572    -1.01e-01  5.97e-03  2.78e-02  9.96e-02  0.700   1.3
                               ***Turning on AO-DIIS***
    3    -1967.0787675290730476    -4.12e-02  2.59e-03  1.84e-02  3.01e-02  0.700   1.2
    4    -1967.1035157295345925    -2.47e-02  5.19e-03  4.21e-02  1.57e-02  0.000   1.1
    5    -1967.1577103858935516    -5.42e-02  1.21e-03  7.83e-03  1.37e-02  0.000   1.2
    6    -1967.1580463799532481    -3.36e-04  4.52e-04  3.37e-03  1.25e-02  0.000   1.1
                              *** Initializing SOSCF ***
---------------------------------------S-O-S-C-F--------------------------------------
Iteration    Energy (Eh)           Delta-E    RMSDP     MaxDP     MaxGrad    Time(sec)
--------------------------------------------------------------------------------------
    7    -1967.1581968653117656    -1.50e-04  2.05e-04  1.14e-03  1.76e-03     1.2
               *** Restarting incremental Fock matrix formation ***
    8    -1967.1582177339687405    -2.09e-05  1.63e-04  8.40e-04  1.88e-04     1.5
    9    -1967.1582169748344313     7.59e-07  9.68e-05  5.39e-04  3.96e-04     1.3
   10    -1967.1582197591183103    -2.78e-06  6.28e-05  4.95e-04  1.31e-04     1.3
   11    -1967.1582192411578944     5.18e-07  3.15e-05  2.67e-04  1.31e-04     1.2
   12    -1967.1582201611090568    -9.20e-07  8.45e-06  3.15e-05  7.94e-06     1.1
   13    -1967.1582201504370460     1.07e-08  9.76e-06  7.96e-05  1.14e-05     1.1
   14    -1967.1582201663368323    -1.59e-08  1.35e-05  1.44e-04  1.79e-06     1.2
                  *** Gradient check signals convergence ***

               *****************************************************
               *                     SUCCESS                       *
               *           SCF CONVERGED AFTER  14 CYCLES          *
               *****************************************************

Recomputing exchange energy using gridx3       ... done (    1.445 sec)
Old exchange energy                            :    -22.316542127 Eh
New exchange energy                            :    -22.316529210 Eh
Exchange energy change after final integration :      0.000012916 Eh
Total energy after final integration           :  -1967.158207266 Eh
             **** ENERGY FILE WAS UPDATED (orca.en.tmp) ****

----------------
TOTAL SCF ENERGY
----------------

Total Energy       :      -1967.15820726631614 Eh          -53529.09619 eV

Components:
Nuclear Repulsion  :        633.73151232166481 Eh           17244.71115 eV
Electronic Energy  :      -2600.80002099760168 Eh          -70771.36652 eV
One Electron Energy:      -3972.86251379553823 Eh         -108107.08506 eV
Two Electron Energy:       1372.06249279793656 Eh           37335.71854 eV
CPCM Dielectric    :         -0.08971150671205 Eh              -2.44117 eV

Virial components:
Potential Energy   :      -3930.32399342967619 Eh         -106949.55307 eV
Kinetic Energy     :       1963.16578616336005 Eh           53420.45689 eV
Virial Ratio       :          2.00203366477304

DFT components:
N(Alpha)           :       42.999984941190 electrons
N(Beta)            :       42.999984941190 electrons
N(Total)           :       85.999969882380 electrons
E(X)               :      -88.913195997342 Eh       
E(C)               :       -3.858806973078 Eh       
E(XC)              :      -92.772002970420 Eh       

CPCM Solvation Model Properties:
Surface-charge          :         -1.02822045351584
Corrected charge        :         -1.00000000000000
Outlying charge corr.   :          0.00004948162147 Eh               0.00135 eV
Free-energy (cav+disp)  :  This term is not implemented in the current solvation scheme

---------------
SCF CONVERGENCE
---------------

  Last Energy change         ...    1.5900e-08  Tolerance :   1.0000e-08
  Last MAX-Density change    ...    1.4433e-04  Tolerance :   1.0000e-07
  Last RMS-Density change    ...    1.3486e-05  Tolerance :   5.0000e-09
  Last DIIS Error            ...    1.7565e-03  Tolerance :   5.0000e-07
  Last Orbital Gradient      ...    1.7945e-06  Tolerance :   1.0000e-05
  Last Orbital Rotation      ...    8.5703e-06  Tolerance :   1.0000e-05


----------------
ORBITAL ENERGIES
----------------

  NO   OCC          E(Eh)            E(eV) 
   0   2.0000    -323.020980     -8789.8477 
   1   2.0000     -38.809272     -1056.0540 
   2   2.0000     -34.014238      -925.5745 
   3   2.0000     -34.014138      -925.5717 
   4   2.0000     -34.013862      -925.5642 
   5   2.0000     -14.381815      -391.3491 
   6   2.0000     -10.238411      -278.6013 
   7   2.0000     -10.218886      -278.0700 
   8   2.0000     -10.209077      -277.8031 
   9   2.0000     -10.203869      -277.6614 
  10   2.0000     -10.203021      -277.6383 
  11   2.0000     -10.201610      -277.5999 
  12   2.0000     -10.200213      -277.5619 
  13   2.0000      -4.303326      -117.0994 
  14   2.0000      -2.798517       -76.1515 
  15   2.0000      -2.798273       -76.1449 
  16   2.0000      -2.797054       -76.1117 
  17   2.0000      -0.950050       -25.8522 
  18   2.0000      -0.888087       -24.1661 
  19   2.0000      -0.794410       -21.6170 
  20   2.0000      -0.781122       -21.2554 
  21   2.0000      -0.705208       -19.1897 
  22   2.0000      -0.638662       -17.3789 
  23   2.0000      -0.616357       -16.7719 
  24   2.0000      -0.557729       -15.1766 
  25   2.0000      -0.539926       -14.6921 
  26   2.0000      -0.517079       -14.0704 
  27   2.0000      -0.485674       -13.2159 
  28   2.0000      -0.482510       -13.1298 
  29   2.0000      -0.455405       -12.3922 
  30   2.0000      -0.447005       -12.1636 
  31   2.0000      -0.422107       -11.4861 
  32   2.0000      -0.402488       -10.9523 
  33   2.0000      -0.386065       -10.5054 
  34   2.0000      -0.371608       -10.1120 
  35   2.0000      -0.363121        -9.8810 
  36   2.0000      -0.308409        -8.3922 
  37   2.0000      -0.295640        -8.0448 
  38   2.0000      -0.292039        -7.9468 
  39   2.0000      -0.291498        -7.9321 
  40   2.0000      -0.285647        -7.7729 
  41   2.0000      -0.283262        -7.7080 
  42   2.0000      -0.257227        -6.9995 
  43   0.0000      -0.089883        -2.4458 
  44   0.0000      -0.053385        -1.4527 
  45   0.0000      -0.044481        -1.2104 
  46   0.0000       0.014885         0.4050 
  47   0.0000       0.026434         0.7193 
  48   0.0000       0.037743         1.0270 
  49   0.0000       0.044978         1.2239 
  50   0.0000       0.058283         1.5860 
  51   0.0000       0.072109         1.9622 
  52   0.0000       0.077565         2.1107 
  53   0.0000       0.089243         2.4284 
*Only the first 10 virtual orbitals were printed.

                    ********************************
                    * MULLIKEN POPULATION ANALYSIS *
                    ********************************

-----------------------
MULLIKEN ATOMIC CHARGES
-----------------------
   0 C :   -0.106596
   1 C :   -0.223849
   2 C :    0.224614
   3 C :   -0.233473
   4 C :   -0.113759
   5 C :   -0.140929
   6 H :    0.149207
   7 H :    0.148591
   8 H :    0.143172
   9 H :    0.152771
  10 H :    0.150175
  11 C :   -0.141091
  12 N :   -0.433059
  13 H :    0.274987
  14 H :    0.276312
  15 H :    0.149374
  16 H :    0.154072
  17 Cu:    0.569481
Sum of atomic charges:    1.0000000

--------------------------------
MULLIKEN REDUCED ORBITAL CHARGES
--------------------------------
  0 C s       :     3.210836  s :     3.210836
      pz      :     0.936592  p :     2.806530
      px      :     0.956499
      py      :     0.913439
      dz2     :     0.011430  d :     0.081941
      dxz     :     0.017206
      dyz     :     0.013082
      dx2y2   :     0.023148
      dxy     :     0.017075
      f0      :     0.000859  f :     0.007289
      f+1     :     0.000314
      f-1     :     0.001295
      f+2     :     0.000811
      f-2     :     0.001629
      f+3     :     0.001567
      f-3     :     0.000814

  1 C s       :     3.277170  s :     3.277170
      pz      :     0.981555  p :     2.859391
      px      :     0.908005
      py      :     0.969831
      dz2     :     0.008473  d :     0.080017
      dxz     :     0.018010
      dyz     :     0.013400
      dx2y2   :     0.024297
      dxy     :     0.015837
      f0      :     0.000703  f :     0.007271
      f+1     :     0.001172
      f-1     :     0.000502
      f+2     :     0.000935
      f-2     :     0.001443
      f+3     :     0.001387
      f-3     :     0.001128

  2 C s       :     3.061909  s :     3.061909
      pz      :     0.879910  p :     2.582402
      px      :     0.827292
      py      :     0.875200
      dz2     :     0.022533  d :     0.121294
      dxz     :     0.019433
      dyz     :     0.019327
      dx2y2   :     0.031189
      dxy     :     0.028811
      f0      :     0.000769  f :     0.009780
      f+1     :     0.001341
      f-1     :     0.001330
      f+2     :     0.000925
      f-2     :     0.002001
      f+3     :     0.001943
      f-3     :     0.001472

  3 C s       :     3.263107  s :     3.263107
      pz      :     0.914231  p :     2.874712
      px      :     1.019088
      py      :     0.941393
      dz2     :     0.011101  d :     0.088472
      dxz     :     0.019707
      dyz     :     0.013007
      dx2y2   :     0.028090
      dxy     :     0.016568
      f0      :     0.000903  f :     0.007182
      f+1     :     0.000266
      f-1     :     0.001224
      f+2     :     0.000733
      f-2     :     0.001589
      f+3     :     0.001636
      f-3     :     0.000831

  4 C s       :     3.204237  s :     3.204237
      pz      :     0.981627  p :     2.817329
      px      :     0.902860
      py      :     0.932842
      dz2     :     0.009789  d :     0.084889
      dxz     :     0.017031
      dyz     :     0.013087
      dx2y2   :     0.026178
      dxy     :     0.018804
      f0      :     0.000757  f :     0.007305
      f+1     :     0.001196
      f-1     :     0.000479
      f+2     :     0.000915
      f-2     :     0.001462
      f+3     :     0.001452
      f-3     :     0.001044

  5 C s       :     3.225611  s :     3.225611
      pz      :     0.923424  p :     2.829217
      px      :     0.955217
      py      :     0.950576
      dz2     :     0.018741  d :     0.078894
      dxz     :     0.013448
      dyz     :     0.011364
      dx2y2   :     0.013104
      dxy     :     0.022237
      f0      :     0.000399  f :     0.007208
      f+1     :     0.001208
      f-1     :     0.001302
      f+2     :     0.000875
      f-2     :     0.001372
      f+3     :     0.000940
      f-3     :     0.001111

  6 H s       :     0.828553  s :     0.828553
      pz      :     0.006975  p :     0.022240
      px      :     0.011097
      py      :     0.004168

  7 H s       :     0.829094  s :     0.829094
      pz      :     0.004217  p :     0.022315
      px      :     0.010211
      py      :     0.007886

  8 H s       :     0.834529  s :     0.834529
      pz      :     0.007886  p :     0.022299
      px      :     0.003680
      py      :     0.010733

  9 H s       :     0.824645  s :     0.824645
      pz      :     0.006630  p :     0.022584
      px      :     0.011046
      py      :     0.004908

 10 H s       :     0.827571  s :     0.827571
      pz      :     0.007693  p :     0.022254
      px      :     0.003652
      py      :     0.010909

 11 C s       :     3.281820  s :     3.281820
      pz      :     0.862616  p :     2.757177
      px      :     0.979160
      py      :     0.915401
      dz2     :     0.020205  d :     0.094114
      dxz     :     0.014036
      dyz     :     0.024081
      dx2y2   :     0.020983
      dxy     :     0.014808
      f0      :     0.001317  f :     0.007979
      f+1     :     0.000578
      f-1     :     0.002157
      f+2     :     0.000753
      f-2     :     0.001274
      f+3     :     0.000767
      f-3     :     0.001134

 12 N s       :     3.471678  s :     3.471678
      pz      :     1.356193  p :     3.915234
      px      :     1.250445
      py      :     1.308596
      dz2     :     0.013366  d :     0.043696
      dxz     :     0.006891
      dyz     :     0.007280
      dx2y2   :     0.004042
      dxy     :     0.012116
      f0      :     0.000397  f :     0.002451
      f+1     :     0.000257
      f-1     :     0.000543
      f+2     :     0.000283
      f-2     :     0.000454
      f+3     :     0.000257
      f-3     :     0.000260

 13 H s       :     0.688715  s :     0.688715
      pz      :     0.008531  p :     0.036298
      px      :     0.011825
      py      :     0.015941

 14 H s       :     0.686885  s :     0.686885
      pz      :     0.009524  p :     0.036804
      px      :     0.017220
      py      :     0.010059

 15 H s       :     0.829200  s :     0.829200
      pz      :     0.010532  p :     0.021426
      px      :     0.004203
      py      :     0.006691

 16 H s       :     0.824326  s :     0.824326
      pz      :     0.003612  p :     0.021602
      px      :     0.011807
      py      :     0.006183

 17 Cus       :     6.350191  s :     6.350191
      pz      :     4.067714  p :    12.147700
      px      :     4.023690
      py      :     4.056295
      dz2     :     1.993743  d :     9.932549
      dxz     :     1.984485
      dyz     :     1.978518
      dx2y2   :     1.992573
      dxy     :     1.983229
      f0      :     0.000009  f :     0.000080
      f+1     :     0.000012
      f-1     :     0.000019
      f+2     :     0.000009
      f-2     :     0.000021
      f+3     :     0.000006
      f-3     :     0.000004



                     *******************************
                     * LOEWDIN POPULATION ANALYSIS *
                     *******************************

----------------------
LOEWDIN ATOMIC CHARGES
----------------------
   0 C :   -0.123467
   1 C :   -0.098222
   2 C :   -0.134961
   3 C :   -0.112160
   4 C :   -0.118496
   5 C :   -0.123541
   6 H :    0.154062
   7 H :    0.152363
   8 H :    0.155656
   9 H :    0.175396
  10 H :    0.154946
  11 C :   -0.214967
  12 N :   -0.011081
  13 H :    0.195937
  14 H :    0.192824
  15 H :    0.142348
  16 H :    0.151644
  17 Cu:    0.461721

-------------------------------
LOEWDIN REDUCED ORBITAL CHARGES
-------------------------------
  0 C s       :     2.765584  s :     2.765584
      pz      :     0.928571  p :     2.928872
      px      :     0.994593
      py      :     1.005709
      dz2     :     0.043826  d :     0.385263
      dxz     :     0.079786
      dyz     :     0.063696
      dx2y2   :     0.107795
      dxy     :     0.090161
      f0      :     0.005473  f :     0.043749
      f+1     :     0.002592
      f-1     :     0.005727
      f+2     :     0.004887
      f-2     :     0.008544
      f+3     :     0.010105
      f-3     :     0.006420

  1 C s       :     2.760422  s :     2.760422
      pz      :     0.924462  p :     2.918488
      px      :     1.027369
      py      :     0.966656
      dz2     :     0.036465  d :     0.376890
      dxz     :     0.076312
      dyz     :     0.062523
      dx2y2   :     0.115402
      dxy     :     0.086188
      f0      :     0.004615  f :     0.042423
      f+1     :     0.006473
      f-1     :     0.001900
      f+2     :     0.004613
      f-2     :     0.008032
      f+3     :     0.009048
      f-3     :     0.007742

  2 C s       :     2.712703  s :     2.712703
      pz      :     0.914522  p :     2.853266
      px      :     0.974113
      py      :     0.964631
      dz2     :     0.091111  d :     0.512585
      dxz     :     0.084592
      dyz     :     0.082214
      dx2y2   :     0.119350
      dxy     :     0.135318
      f0      :     0.005508  f :     0.056407
      f+1     :     0.006415
      f-1     :     0.006036
      f+2     :     0.006424
      f-2     :     0.011340
      f+3     :     0.011917
      f-3     :     0.008767

  3 C s       :     2.747099  s :     2.747099
      pz      :     0.929165  p :     2.926071
      px      :     0.998901
      py      :     0.998005
      dz2     :     0.044540  d :     0.395492
      dxz     :     0.077273
      dyz     :     0.070192
      dx2y2   :     0.112279
      dxy     :     0.091208
      f0      :     0.005530  f :     0.043499
      f+1     :     0.002518
      f-1     :     0.005695
      f+2     :     0.004800
      f-2     :     0.008163
      f+3     :     0.010394
      f-3     :     0.006398

  4 C s       :     2.763306  s :     2.763306
      pz      :     0.921019  p :     2.924653
      px      :     1.043321
      py      :     0.960312
      dz2     :     0.038534  d :     0.386815
      dxz     :     0.078868
      dyz     :     0.062916
      dx2y2   :     0.118842
      dxy     :     0.087655
      f0      :     0.004773  f :     0.043722
      f+1     :     0.006794
      f-1     :     0.001917
      f+2     :     0.004728
      f-2     :     0.008202
      f+3     :     0.009536
      f-3     :     0.007771

  5 C s       :     2.767469  s :     2.767469
      pz      :     0.953894  p :     2.935294
      px      :     0.997006
      py      :     0.984394
      dz2     :     0.074313  d :     0.378265
      dxz     :     0.063036
      dyz     :     0.058016
      dx2y2   :     0.067794
      dxy     :     0.115107
      f0      :     0.003544  f :     0.042513
      f+1     :     0.005785
      f-1     :     0.005361
      f+2     :     0.006616
      f-2     :     0.007893
      f+3     :     0.006888
      f-3     :     0.006426

  6 H s       :     0.786838  s :     0.786838
      pz      :     0.018655  p :     0.059100
      px      :     0.028344
      py      :     0.012101

  7 H s       :     0.788241  s :     0.788241
      pz      :     0.012163  p :     0.059396
      px      :     0.026371
      py      :     0.020862

  8 H s       :     0.784733  s :     0.784733
      pz      :     0.020965  p :     0.059611
      px      :     0.010818
      py      :     0.027828

  9 H s       :     0.764274  s :     0.764274
      pz      :     0.018453  p :     0.060331
      px      :     0.028934
      py      :     0.012943

 10 H s       :     0.785873  s :     0.785873
      pz      :     0.020240  p :     0.059180
      px      :     0.010971
      py      :     0.027968

 11 C s       :     2.780509  s :     2.780509
      pz      :     0.933627  p :     2.948249
      px      :     1.034656
      py      :     0.979966
      dz2     :     0.115138  d :     0.434885
      dxz     :     0.046060
      dyz     :     0.115238
      dx2y2   :     0.072921
      dxy     :     0.085529
      f0      :     0.008148  f :     0.051325
      f+1     :     0.006567
      f-1     :     0.009720
      f+2     :     0.007476
      f-2     :     0.007620
      f+3     :     0.004861
      f-3     :     0.006931

 12 N s       :     3.033078  s :     3.033078
      pz      :     1.345107  p :     3.816753
      px      :     1.215684
      py      :     1.255962
      dz2     :     0.040592  d :     0.150828
      dxz     :     0.022635
      dyz     :     0.029131
      dx2y2   :     0.016359
      dxy     :     0.042111
      f0      :     0.002091  f :     0.010422
      f+1     :     0.001598
      f-1     :     0.001581
      f+2     :     0.001282
      f-2     :     0.001482
      f+3     :     0.001186
      f-3     :     0.001204

 13 H s       :     0.697893  s :     0.697893
      pz      :     0.025278  p :     0.106170
      px      :     0.036281
      py      :     0.044610

 14 H s       :     0.700879  s :     0.700879
      pz      :     0.026762  p :     0.106296
      px      :     0.052311
      py      :     0.027223

 15 H s       :     0.797567  s :     0.797567
      pz      :     0.028795  p :     0.060086
      px      :     0.012475
      py      :     0.018816

 16 H s       :     0.788715  s :     0.788715
      pz      :     0.011023  p :     0.059641
      px      :     0.030531
      py      :     0.018087

 17 Cus       :     6.260775  s :     6.260775
      pz      :     4.046660  p :    12.168742
      px      :     4.033690
      py      :     4.088392
      dz2     :     2.027766  d :    10.108653
      dxz     :     2.014964
      dyz     :     2.035143
      dx2y2   :     2.015342
      dxy     :     2.015438
      f0      :     0.000011  f :     0.000110
      f+1     :     0.000016
      f-1     :     0.000030
      f+2     :     0.000011
      f-2     :     0.000029
      f+3     :     0.000007
      f-3     :     0.000005



                      *****************************
                      * MAYER POPULATION ANALYSIS *
                      *****************************

  NA   - Mulliken gross atomic population
  ZA   - Total nuclear charge
  QA   - Mulliken gross atomic charge
  VA   - Mayer's total valence
  BVA  - Mayer's bonded valence
  FA   - Mayer's free valence

  ATOM       NA         ZA         QA         VA         BVA        FA
  0 C      6.1066     6.0000    -0.1066     3.8450     3.8450     0.0000
  1 C      6.2238     6.0000    -0.2238     4.0053     4.0053     0.0000
  2 C      5.7754     6.0000     0.2246     3.4235     3.4235     0.0000
  3 C      6.2335     6.0000    -0.2335     3.8760     3.8760     0.0000
  4 C      6.1138     6.0000    -0.1138     3.8624     3.8624     0.0000
  5 C      6.1409     6.0000    -0.1409     3.9065     3.9065     0.0000
  6 H      0.8508     1.0000     0.1492     0.9637     0.9637     0.0000
  7 H      0.8514     1.0000     0.1486     0.9634     0.9634     0.0000
  8 H      0.8568     1.0000     0.1432     0.9680     0.9680     0.0000
  9 H      0.8472     1.0000     0.1528     0.9902     0.9902     0.0000
 10 H      0.8498     1.0000     0.1502     0.9640     0.9640     0.0000
 11 C      6.1411     6.0000    -0.1411     3.8578     3.8578     0.0000
 12 N      7.4331     7.0000    -0.4331     3.2513     3.2513    -0.0000
 13 H      0.7250     1.0000     0.2750     0.9251     0.9251    -0.0000
 14 H      0.7237     1.0000     0.2763     0.9262     0.9262    -0.0000
 15 H      0.8506     1.0000     0.1494     0.9658     0.9658     0.0000
 16 H      0.8459     1.0000     0.1541     0.9659     0.9659     0.0000
 17 Cu    28.4305    29.0000     0.5695     0.8275     0.8275    -0.0000

  Mayer bond orders larger than 0.100000
B(  0-C ,  1-C ) :   1.3986 B(  0-C ,  5-C ) :   1.3854 B(  0-C ,  6-H ) :   0.9724 
B(  1-C ,  2-C ) :   1.3879 B(  1-C ,  8-H ) :   0.9760 B(  2-C ,  3-C ) :   1.2376 
B(  2-C , 11-C ) :   0.9317 B(  2-C , 12-N ) :  -0.1162 B(  3-C ,  4-C ) :   1.3901 
B(  3-C ,  9-H ) :   0.9602 B(  3-C , 17-Cu) :   0.1194 B(  4-C ,  5-C ) :   1.3868 
B(  4-C , 10-H ) :   0.9700 B(  5-C ,  7-H ) :   0.9689 B( 11-C , 12-N ) :   0.9226 
B( 11-C , 15-H ) :   0.9840 B( 11-C , 16-H ) :   0.9706 B( 12-N , 13-H ) :   0.9077 
B( 12-N , 14-H ) :   0.9092 B( 12-N , 17-Cu) :   0.5715 

-------
TIMINGS
-------

Total SCF time: 0 days 0 hours 0 min 21 sec 

Total time                  ....      21.757 sec
Sum of individual times     ....      20.731 sec  ( 95.3%)

SCF preparation             ....       1.712 sec  (  7.9%)
Fock matrix formation       ....      17.347 sec  ( 79.7%)
  Startup                   ....       0.044 sec  (  0.3% of F)
  Split-RI-J                ....       1.560 sec  (  9.0% of F)
  Chain of spheres X        ....       9.946 sec  ( 57.3% of F)
  XC integration            ....       4.071 sec  ( 23.5% of F)
    XC Preparation          ....       0.000 sec  (  0.0% of XC)
    Basis function eval.    ....       0.262 sec  (  6.4% of XC)
    Density eval.           ....       0.267 sec  (  6.5% of XC)
    XC-Functional eval.     ....       0.020 sec  (  0.5% of XC)
    XC-Potential eval.      ....       0.255 sec  (  6.3% of XC)
  CPCM terms                ....       1.936 sec  ( 11.2% of F)
Diagonalization             ....       0.000 sec  (  0.0%)
Density matrix formation    ....       0.236 sec  (  1.1%)
Total Energy calculation    ....       0.116 sec  (  0.5%)
Population analysis         ....       0.067 sec  (  0.3%)
Orbital Transformation      ....       0.133 sec  (  0.6%)
Orbital Orthonormalization  ....       0.000 sec  (  0.0%)
DIIS solution               ....       0.650 sec  (  3.0%)
SOSCF solution              ....       0.471 sec  (  2.2%)
Finished LeanSCF after  21.9 sec

Maximum memory used throughout the entire LEANSCF-calculation: 33.1 MB


           ************************************************************
           *        Program running with 32 parallel MPI-processes    *
           *              working on a common directory               *
           ************************************************************

------------------------------------------------------------------------------
                         ORCA PROPERTY INTEGRAL CALCULATIONS
------------------------------------------------------------------------------

GBWName                                   ... orca.gbw
Number of atoms                           ...     18
Number of basis functions                 ...    347
Max core memory                           ...   2000 MB

Dipole integrals                          ... YES
Quadrupole integrals                      ...  NO
Linear momentum integrals                 ...  NO
Angular momentum integrals                ...  NO
Higher moments length integrals           ...  NO
Higher moments velocity integrals         ...  NO
Kinetic energy integrals                  ...  NO
GIAO right hand sides                     ...  NO
GIAO dipole derivative integrals          ...  NO
SOC integrals                             ...  NO
EPR diamagnetic integrals (GIAO)          ...  NO
EPR gauge integrals                       ...  NO
Field gradient integrals                  ...  NO (   0 nuclei)
Spin-dipole/Fermi contact integrals       ...  NO (   0 nuclei)
Contact density integrals                 ...  NO (   0 nuclei)
Nucleus-orbit integrals                   ...  NO (   0 nuclei)
Geometric perturbations                   ...  NO (  18 nuclei)

Choice of electric origin   ... Center of mass
Position of electric origin ... ( -1.8178,  4.7699,  6.3725) 
Choice of magnetic origin   ... GIAO
Position of magnetic origin ... (  0.0000,  0.0000,  0.0000) 

Calculating integrals                     ... Electric Dipole (Length)     done (  0.0 sec)

Property integrals calculated in   0.0 sec

Maximum memory used throughout the entire PROPINT-calculation: 20.8 MB


-------------------------------------------------------------------------------
                          DFT DISPERSION CORRECTION                            
                                                                               
                              DFTD3 V3.1  Rev 1                                
                          USING Becke-Johnson damping                          
-------------------------------------------------------------------------------
The B3LYP functional is recognized
Active option DFTDOPT                   ...         4   

molecular C6(AA) [au] = 4450.006954 


            DFT-D V3
 parameters
 s6 scaling factor         :     1.0000 
 a1 scaling factor         :     0.3981 
 s8 scaling factor         :     1.9889 
 a2 scaling factor         :     4.4211 
 ad hoc parameters k1-k3   :    16.0000     1.3333    -4.0000 

 Edisp/kcal,au: -23.578430097917  -0.037574616093 
 E6   /kcal   : -10.461040687 
 E8   /kcal   : -13.117389410 
 % E8         :  55.633005913 

-------------------------   ----------------
Dispersion correction           -0.037574616
-------------------------   ----------------


-------------------------   --------------------
FINAL SINGLE POINT ENERGY     -1967.195781882409
-------------------------   --------------------



           ************************************************************
           *        Program running with 32 parallel MPI-processes    *
           *              working on a common directory               *
           ************************************************************
[...]
     34      -0.000883  -0.000436   0.000287  -0.000126  -0.001007   0.001260
     35       0.001050   0.000477  -0.000339   0.000138   0.001756  -0.000241
     36       0.000041   0.000066  -0.000023   0.000050  -0.005962  -0.076708
     37       0.000058   0.000066  -0.000003   0.000026  -0.057177   0.013860
     38       0.000025   0.000040  -0.000012   0.000035  -0.003448  -0.021342
     39       0.000057   0.000177   0.000117  -0.000130  -0.488664   0.380006
     40       0.000362   0.000001  -0.000182   0.000234   0.578600  -0.492830
     41       0.000206   0.000214  -0.000035  -0.000026  -0.132948   0.112334
     42      -0.000052  -0.000249   0.000023   0.000019   0.575752   0.687294
     43       0.000197   0.000280  -0.000057   0.000246   0.217518   0.295380
     44       0.000036   0.000006  -0.000118   0.000072   0.162551   0.183057
     45       0.001525   0.001072  -0.000258   0.000481  -0.001615   0.000288
     46       0.010128   0.005295  -0.002329   0.002202   0.007354  -0.004497
     47      -0.012629  -0.006235   0.003066  -0.002291  -0.005122   0.005451
     48      -0.001605   0.001007  -0.000311   0.002162  -0.008270   0.016829
     49       0.001748   0.000386  -0.000458  -0.000638   0.007197  -0.009634
     50      -0.000673  -0.000181   0.000146   0.000166   0.000723  -0.000033
     51      -0.000002  -0.000006  -0.000006  -0.000007  -0.000003  -0.000025
     52      -0.000011   0.000004   0.000002  -0.000008  -0.000056   0.000042
     53      -0.000010  -0.000006   0.000002  -0.000013   0.000012  -0.000045


-----------
IR SPECTRUM
-----------

 Mode   freq       eps      Int      T**2         TX        TY        TZ
       cm**-1   L/(mol*cm) km/mol    a.u.
----------------------------------------------------------------------------
  6:     43.09   0.000957    4.84  0.006928  ( 0.031957  0.041251  0.064848)
  7:     79.61   0.000536    2.71  0.002103  ( 0.019938  0.028328  0.030050)
  8:    115.07   0.000580    2.93  0.001574  (-0.039186  0.005711 -0.002440)
  9:    154.33   0.002895   14.63  0.005853  (-0.002801 -0.032013 -0.069430)
 10:    300.34   0.000499    2.52  0.000519  (-0.012748 -0.015520 -0.010752)
 11:    348.97   0.000327    1.65  0.000292  (-0.014032  0.009593 -0.001758)
 12:    413.62   0.000652    3.30  0.000492  (-0.003076  0.017243  0.013617)
 13:    425.75   0.000280    1.42  0.000205  (-0.000680  0.014149  0.002170)
 14:    510.15   0.002270   11.47  0.001388  ( 0.001288  0.019880  0.031487)
 15:    539.55   0.007820   39.52  0.004523  (-0.059852  0.014542 -0.027003)
 16:    630.34   0.007507   37.94  0.003717  ( 0.060764 -0.004930  0.000463)
 17:    636.00   0.000030    0.15  0.000015  ( 0.000005 -0.003747  0.000784)
 18:    728.63   0.016906   85.44  0.007241  (-0.032660  0.044194  0.064970)
 19:    775.41   0.008701   43.97  0.003502  (-0.005697  0.032955  0.048817)
 20:    819.13   0.004160   21.02  0.001585  (-0.012199 -0.021127 -0.031458)
 21:    865.44   0.000407    2.06  0.000147  ( 0.008512 -0.001689  0.008455)
 22:    928.60   0.007788   39.36  0.002617  ( 0.005808 -0.020326 -0.046588)
 23:    940.21   0.002737   13.83  0.000908  (-0.009323 -0.013166 -0.025459)
 24:    978.97   0.003402   17.19  0.001084  ( 0.007221  0.019166  0.025787)
 25:    990.51   0.000260    1.32  0.000082  ( 0.004085  0.001352  0.007967)
 26:   1016.52   0.000224    1.13  0.000069  (-0.001013  0.002300  0.007899)
 27:   1022.38   0.000305    1.54  0.000093  (-0.003893 -0.003070 -0.008271)
 28:   1048.60   0.001058    5.35  0.000315  (-0.014006 -0.010187  0.003880)
 29:   1073.93   0.017061   86.22  0.004958  (-0.010423 -0.011029  0.068755)
 30:   1106.06   0.003284   16.60  0.000927  ( 0.019328 -0.006261 -0.022667)
 31:   1159.70   0.001083    5.47  0.000291  ( 0.002421 -0.007361  0.015212)
 32:   1179.93   0.000011    0.06  0.000003  ( 0.000208  0.000923 -0.001440)
 33:   1195.52   0.000055    0.28  0.000014  ( 0.003544  0.000667 -0.001184)
 34:   1232.38   0.002898   14.65  0.000734  ( 0.019257  0.017694 -0.007070)
 35:   1308.51   0.000573    2.90  0.000137  (-0.003949 -0.010396  0.003620)
 36:   1344.34   0.000166    0.84  0.000039  (-0.002925  0.004397  0.003270)
 37:   1363.74   0.000005    0.03  0.000001  ( 0.000062 -0.000220 -0.001049)
 38:   1397.14   0.003521   17.79  0.000786  (-0.017438 -0.020982 -0.006494)
 39:   1484.12   0.001725    8.72  0.000363  (-0.009800  0.013704 -0.008879)
 40:   1496.77   0.000913    4.62  0.000190  ( 0.012493  0.000343 -0.005854)
 41:   1526.84   0.001954    9.88  0.000399  (-0.014223 -0.012479  0.006437)
 42:   1618.42   0.001174    5.93  0.000226  (-0.009880 -0.005718 -0.009796)
 43:   1621.56   0.009168   46.33  0.001764  ( 0.000750 -0.041870 -0.003279)
 44:   1636.98   0.001559    7.88  0.000297  (-0.008092 -0.012309 -0.008953)
 45:   3065.93   0.005833   29.48  0.000594  (-0.015163 -0.004856  0.018445)
 46:   3117.21   0.001812    9.16  0.000181  (-0.008184  0.008043 -0.007052)
 47:   3126.00   0.001431    7.23  0.000143  ( 0.009866  0.002674  0.006193)
 48:   3171.58   0.000709    3.58  0.000070  (-0.003330 -0.006460  0.004114)
 49:   3180.85   0.000446    2.25  0.000044  (-0.004242 -0.004598  0.002139)
 50:   3189.07   0.002898   14.64  0.000284  (-0.006753  0.010967 -0.010847)
 51:   3199.07   0.001897    9.59  0.000185  ( 0.011099  0.007760  0.001303)
 52:   3468.30   0.005572   28.16  0.000501  ( 0.003741  0.021940  0.002441)
 53:   3531.05   0.010743   54.29  0.000949  ( 0.028434 -0.007810  0.008944)

* The epsilon (eps) is given for a Dirac delta lineshape.
** The dipole moment derivative (T) already includes vibrational overlap.

The first frequency considered to be a vibration is 6
The total number of vibrations considered is 48


--------------------------
THERMOCHEMISTRY AT 298.15K
--------------------------

Temperature         ...   298.15 K
Pressure            ...     1.00 atm
Total Mass          ...   170.71 AMU
Quasi RRHO          ...     True
Cut-Off Frequency   ...     1.00 cm^-1

Throughout the following assumptions are being made:
  (1) The electronic state is orbitally nondegenerate
  (2) There are no thermally accessible electronically excited states
  (3) Hindered rotations indicated by low frequency modes are not
      treated as such but are treated as vibrations and this may
      cause some error
  (4) All equations used are the standard statistical mechanics
      equations for an ideal gas
  (5) All vibrations are strictly harmonic

freq.      43.09  E(vib)   ...       0.53 
freq.      79.61  E(vib)   ...       0.49 
freq.     115.07  E(vib)   ...       0.44 
freq.     154.33  E(vib)   ...       0.40 
freq.     300.34  E(vib)   ...       0.26 
freq.     348.97  E(vib)   ...       0.23 
freq.     413.62  E(vib)   ...       0.19 
freq.     425.75  E(vib)   ...       0.18 
freq.     510.15  E(vib)   ...       0.14 
freq.     539.55  E(vib)   ...       0.12 
freq.     630.34  E(vib)   ...       0.09 
freq.     636.00  E(vib)   ...       0.09 
freq.     728.63  E(vib)   ...       0.06 
freq.     775.41  E(vib)   ...       0.05 
freq.     819.13  E(vib)   ...       0.05 
freq.     865.44  E(vib)   ...       0.04 
freq.     928.60  E(vib)   ...       0.03 
freq.     940.21  E(vib)   ...       0.03 
freq.     978.97  E(vib)   ...       0.03 
freq.     990.51  E(vib)   ...       0.02 
freq.    1016.52  E(vib)   ...       0.02 
freq.    1022.38  E(vib)   ...       0.02 
freq.    1048.60  E(vib)   ...       0.02 
freq.    1073.93  E(vib)   ...       0.02 
freq.    1106.06  E(vib)   ...       0.02 
freq.    1159.70  E(vib)   ...       0.01 
freq.    1179.93  E(vib)   ...       0.01 
freq.    1195.52  E(vib)   ...       0.01 
freq.    1232.38  E(vib)   ...       0.01 
freq.    1308.51  E(vib)   ...       0.01 
freq.    1344.34  E(vib)   ...       0.01 
freq.    1363.74  E(vib)   ...       0.01 
freq.    1397.14  E(vib)   ...       0.00 
freq.    1484.12  E(vib)   ...       0.00 
freq.    1496.77  E(vib)   ...       0.00 
freq.    1526.84  E(vib)   ...       0.00 
freq.    1618.42  E(vib)   ...       0.00 
freq.    1621.56  E(vib)   ...       0.00 
freq.    1636.98  E(vib)   ...       0.00 
freq.    3065.93  E(vib)   ...       0.00 
freq.    3117.21  E(vib)   ...       0.00 
freq.    3126.00  E(vib)   ...       0.00 
freq.    3171.58  E(vib)   ...       0.00 
freq.    3180.85  E(vib)   ...       0.00 
freq.    3189.07  E(vib)   ...       0.00 
freq.    3199.07  E(vib)   ...       0.00 
freq.    3468.30  E(vib)   ...       0.00 
freq.    3531.05  E(vib)   ...       0.00 

------------
INNER ENERGY
------------

The inner energy is: U= E(el) + E(ZPE) + E(vib) + E(rot) + E(trans)
    E(el)   - is the total energy from the electronic structure calculation
              = E(kin-el) + E(nuc-el) + E(el-el) + E(nuc-nuc)
    E(ZPE)  - the the zero temperature vibrational energy from the frequency calculation
    E(vib)  - the the finite temperature correction to E(ZPE) due to population
              of excited vibrational states
    E(rot)  - is the rotational thermal energy
    E(trans)- is the translational thermal energy

Summary of contributions to the inner energy U:
Electronic energy                ...  -1967.19637927 Eh
Zero point energy                ...      0.14832286 Eh      93.07 kcal/mol
Thermal vibrational correction   ...      0.00580324 Eh       3.64 kcal/mol
Thermal rotational correction    ...      0.00141627 Eh       0.89 kcal/mol
Thermal translational correction ...      0.00141627 Eh       0.89 kcal/mol
-----------------------------------------------------------------------
Total thermal energy                  -1967.03942063 Eh


Summary of corrections to the electronic energy:
(perhaps to be used in another calculation)
Total thermal correction                  0.00863578 Eh       5.42 kcal/mol
Non-thermal (ZPE) correction              0.14832286 Eh      93.07 kcal/mol
-----------------------------------------------------------------------
Total correction                          0.15695864 Eh      98.49 kcal/mol


--------
ENTHALPY
--------

The enthalpy is H = U + kB*T
                kB is Boltzmann's constant
Total thermal energy              ...  -1967.03942063 Eh 
Thermal Enthalpy correction       ...      0.00094421 Eh       0.59 kcal/mol
-----------------------------------------------------------------------
Total Enthalpy                    ...  -1967.03847642 Eh


Note: Only C1 symmetry has been detected, increase convergence thresholds 
      if your molecule has a higher symmetry. Symmetry factor of 1.0 is   
      used for the rotational entropy correction. 
 

Note: Rotational entropy computed according to Herzberg 
Infrared and Raman Spectra, Chapter V,1, Van Nostrand Reinhold, 1945 
Point Group:  C1, Symmetry Number:   1  
Rotational constants in cm-1:     0.070734     0.032159     0.025962 

Vibrational entropy computed according to the QRRHO of S. Grimme
Chem.Eur.J. 2012 18 9955 using a reference frequency of 100.0 cm-1


-------
ENTROPY
-------

The entropy contributions are T*S = T*(S(el)+S(vib)+S(rot)+S(trans))
     S(el)   - electronic entropy
     S(vib)  - vibrational entropy
     S(rot)  - rotational entropy
     S(trans)- translational entropy
The entropies will be listed as multiplied by the temperature to get
units of energy

Electronic entropy                ...      0.00000000 Eh      0.00 kcal/mol
Vibrational entropy               ...      0.00999065 Eh      6.27 kcal/mol
Rotational entropy                ...      0.01410757 Eh      8.85 kcal/mol
Translational entropy             ...      0.01962863 Eh     12.32 kcal/mol
-----------------------------------------------------------------------
Final entropy term                ...      0.04372685 Eh     27.44 kcal/mol

In case the symmetry of your molecule has not been determined correctly
or in case you have a reason to use a different symmetry number we print 
out the resulting rotational entropy values for sn=1,12:

 non-linear molecules -----------------------------------
|  sn= 1 | S(rot)=       0.01410757 Eh      8.85 kcal/mol|
|  sn= 2 | S(rot)=       0.01345312 Eh      8.44 kcal/mol|
|  sn= 3 | S(rot)=       0.01307029 Eh      8.20 kcal/mol|
|  sn= 4 | S(rot)=       0.01279866 Eh      8.03 kcal/mol|
|  sn= 5 | S(rot)=       0.01258797 Eh      7.90 kcal/mol|
|  sn= 6 | S(rot)=       0.01241583 Eh      7.79 kcal/mol|
|  sn= 7 | S(rot)=       0.01227028 Eh      7.70 kcal/mol|
|  sn= 8 | S(rot)=       0.01214421 Eh      7.62 kcal/mol|
|  sn= 9 | S(rot)=       0.01203300 Eh      7.55 kcal/mol|
|  sn=10 | S(rot)=       0.01193352 Eh      7.49 kcal/mol|
|  sn=11 | S(rot)=       0.01184353 Eh      7.43 kcal/mol|
|  sn=12 | S(rot)=       0.01176137 Eh      7.38 kcal/mol|
 linear molecules ---------------------------------------
|  Dinfh | S(rot)=       0.00877314 Eh      5.51 kcal/mol|
|  Cinfv | S(rot)=       0.00942760 Eh      5.92 kcal/mol|
 --------------------------------------------------------


-------------------
GIBBS FREE ENERGY
-------------------

The Gibbs free energy is G = H - T*S

Total enthalpy                    ...  -1967.03847642 Eh 
Total entropy correction          ...     -0.04372685 Eh    -27.44 kcal/mol
-----------------------------------------------------------------------
Final Gibbs free energy         ...  -1967.08220327 Eh

For completeness - the Gibbs free energy minus the electronic energy
G-E(el)                           ...      0.11417599 Eh     71.65 kcal/mol


Maximum memory used throughout the entire PROP-calculation: 110.9 MB

--------------------------------
SUGGESTED CITATIONS FOR THIS RUN
--------------------------------

Below you find a list of papers that are relevant to this ORCA run
We neither can nor want to force you to cite these papers, but we appreciate if you do
You receive ORCA, which is the product of decades of hard work by many enthusiastic individuals, for free
The only thing we kindly ask in return is that you cite our papers,
We deeply appreciate it, if you show your appreciation for ORCA by not just citing the generic ORCA reference.

Please note that relegating all ORCA citations to the supporting information does *not* help us.
SI sections are not indexed - citations you put there will not count into any citation statistics
But we need these citations in order to attract the funding resources that allow us to do what we are doing

Therefore, if you are a happy ORCA user, please consider citing a few of the papers listed below in the main body of your paper

In addition to the list printed below, the program has created the file orca.bibtex that contains the list in bibtex format
You can import this file easily into all common literature databanks and citation aid programs


List of essential papers. We consider these as the minimum necessary citations

  1. Neese, F.
     Software update: the ORCA program system, version 6.0
     WIRES Comput. Molec. Sci. 2025 15(1), e70019
     doi.org/10.1002/wcms.7019

List of papers to cite with high priority. The work reported in these papers was absolutely
necessary for this run to complete.
Our perspective: the developers of density functionals and basis sets usually get cited in chemistry papers
Good! But without the algorithms to do something with them, the functionals or basis sets would not do anything.
Hence, in our opinion, the algorithm design and method developments papers are equally worthy of getting cited

  1. Neese, F.
     An improvement of the resolution of the identity approximation for the formation of the Coulomb matrix
     J. Comp. Chem. 2003 24(14), 1740-1747
     doi.org/10.1002/jcc.10318
  2. Neese, F.; Wennmohs, F.; Hansen, A.; Becker, U.
     Efficient, approximate and parallel Hartree-Fock and hybrid DFT calculations. A 'chain-of-spheres' algorithm for the Hartree-Fock exchange
     Chem. Phys. 2009 356(1-3), 98-109
     doi.org/10.1016/j.chemphys.2008.10.036
  3. Grimme, S.; Antony, J.; Ehrlich, S.; Krieg, H.
     A consistent and accurate ab initio parametrization of density functional dispersion correction (DFT-D) for the 94 elements H-Pu
     J. Chem. Phys. 2010 132 , 154104
     doi.org/10.1063/1.3382344
  4. Grimme, S.; Ehrlich, S.; Goerigk, L.
     Effect of the damping function in dispersion corrected density functional theory
     J. Comput. Chem. 2011 32(7), 1456-1465
     doi.org/10.1002/jcc.21759
  5. Bykov, D.; Petrenko, T.; Izsak, R.; Kossmann, S.; Becker, U.; Valeev, E.; Neese, F.
     Efficient implementation of the analytic second derivatives of Hartree-Fock and hybrid DFT energies: a detailed analysis of different approximations
     Molec. Phys. 2015 113 , 1961-1977
     doi.org/10.1080/00268976.2015.1025114
  6. Garcia-Rates, M.; Neese, F.
     Efficient implementation of the analytical second derivatives of hartree-fock and hybrid DFT energies within the framework of the conductor-like polarizable continuum model
     J. Comput. Chem. 2019 40 , 1816-1828
     doi.org/10.1002/jcc.25833
  7. Garcia-Rates, M.; Neese, F.
     Effect of the Solute Cavity on the Solvation Energy and its Derivatives within the Framework of the Gaussian Charge Scheme
     J. Comput. Chem. 2020 41 , 922-939
     doi.org/10.1002/jcc.26139
  8. Helmich-Paris, B.; de Souza, B.; Neese, F.; Izsák, R.
     An improved chain of spheres for exchange algorithm
     J. Chem. Phys. 2021 155(10), 104109
     doi.org/10.1063/5.0058766
  9. Neese, F.
     The SHARK Integral Generation and Digestion System
     J. Comp. Chem. 2022 44(3), 381
     doi.org/10.1002/jcc.26942

List of suggested additional citations. These are papers that are important in the 'surrounding' of 
of this run, or papers that preceded the highly important papers. If you like your results we are grateful for a citation.

  1. Izsak, R.; Neese, F.
     An overlap fitted chain of spheres exchange method
     J. Chem. Phys. 2011 135 , 144105
     doi.org/10.1063/1.3646921
  2. Izsak, R.; Hansen, A.; Neese, F.
     The resolution of identity and chain of spheres approximations for the LPNO-CCSD singles Fock term
     Molec. Phys. 2012 110 , 2413-2417
     doi.org/10.1080/00268976.2012.687466
  3. Neese, F.
     The ORCA program system
     WIRES Comput. Molec. Sci. 2012 2(1), 73-78
     doi.org/10.1002/wcms.81
  4. Izsak, R.; Neese, F.; Klopper, W.
     Robust fitting techniques in the chain of spheres approximation to the Fock exchange: The role of the complementary space
     J. Chem. Phys. 2013 139 , 
     doi.org/10.1063/1.4819264
  5. Neese, F.
     Software update: the ORCA program system, version 4.0
     WIRES Comput. Molec. Sci. 2018 8(1), 1-6
     doi.org/10.1002/wcms.1327
  6. Neese, F.; Wennmohs, F.; Becker, U.; Riplinger, C.
     The ORCA quantum chemistry program package
     J. Chem. Phys. 2020 152(22), 224108
     doi.org/10.1063/5.0004608
  7. Neese, F.
     Software update: The ORCA program system—Version 5.0
     WIRES Comput. Molec. Sci. 2022 12(1), e1606
     doi.org/10.1002/wcms.1606

List of optional additional citations

  1. Neese, F.
     Approximate second-order SCF convergence for spin unrestricted wavefunctions
     Chem. Phys. Lett. 2000 325(1-3), 93-98
     doi.org/10.1016/s0009-2614(00)00662-x

Timings for individual modules:

Sum of individual times          ...      817.663 sec (=  13.628 min)
Startup calculation              ...       83.358 sec (=   1.389 min)  10.2 %
SCF iterations                   ...      315.505 sec (=   5.258 min)  38.6 %
Property integrals               ...       80.809 sec (=   1.347 min)   9.9 %
SCF Response                     ...       84.087 sec (=   1.401 min)  10.3 %
Property calculations            ...       91.320 sec (=   1.522 min)  11.2 %
SCF Gradient evaluation          ...      162.393 sec (=   2.707 min)  19.9 %
Geometry relaxation              ...        0.190 sec (=   0.003 min)   0.0 %
                             ****ORCA TERMINATED NORMALLY****
TOTAL RUN TIME: 0 days 0 hours 14 minutes 33 seconds 479 msec
