
                                 *****************
                                 * O   R   C   A *
                                 *****************

                                            #,                                       
                                            ###                                      
                                            ####                                     
                                            #####                                    
                                            ######                                   
                                           ########,                                 
                                     ,,################,,,,,                         
                               ,,#################################,,                 
                          ,,##########################################,,             
                       ,#########################################, ''#####,          
                    ,#############################################,,   '####,        
                  ,##################################################,,,,####,       
                ,###########''''           ''''###############################       
              ,#####''   ,,,,##########,,,,          '''####'''          '####       
            ,##' ,,,,###########################,,,                        '##       
           ' ,,###''''                  '''############,,,                           
         ,,##''                                '''############,,,,        ,,,,,,###''
      ,#''                                            '''#######################'''  
     '                                                          ''''####''''         
             ,#######,   #######,   ,#######,      ##                                
            ,#'     '#,  ##    ##  ,#'     '#,    #''#        ,####,    ,#,          
            ##       ##  ##   ,#'  ##            #'  '#       #'       ,# #          
            ##       ##  #######   ##           ,######,      #####,      #          
            '#,     ,#'  ##    ##  '#,     ,#' ,#      #,     #,   #      #          
             '#######'   ##     ##  '#######'  #'      '#     '####' #    #          



                #########################################################
                #                        -***-                          #
                #          Department of theory and spectroscopy        #
                #                                                       #
                #                      Frank Neese                      #
                #                                                       #
                #     Directorship, Architecture, Infrastructure        #
                #                    SHARK, DRIVERS                     #
                #        Core code/Algorithms in most modules           #
                #                                                       #
                #        Max Planck Institute fuer Kohlenforschung      #
                #                Kaiser Wilhelm Platz 1                 #
                #                 D-45470 Muelheim/Ruhr                 #
                #                      Germany                          #
                #                                                       #
                #                  All rights reserved                  #
                #                        -***-                          #
                #########################################################


                         Program Version 6.1.0-f.0  -   RELEASE   -


 With contributions from (in alphabetic order):
[Max-Planck-Institut fuer Kohlenforschung]                               
  Daniel Aravena         : Magnetic Suceptibility                        
  Michael Atanasov       : Ab Initio Ligand Field Theory (pilot matlab implementation)
  Alexander A. Auer      : GIAO ZORA, VPT2 properties, NMR spectrum      
  Ute Becker             : All parallelization in ORCA, NUMFREQ, NUMCALC 
  Giovanni Bistoni       : ED, misc. LED, open-shell LED, HFLD           
  Dmytro Bykov           : pre 5.0 version of the SCF Hessian            
  Marcos Casanova-Páez   : Triplet and SCS-CIS(D). UHF-(DLPNO)-IP/EA/STEOM-CCSD. UHF-CVS-IP/STEOM-CCSD   
  Vijay G. Chilkuri      : MRCI spin determinant printing, contributions to CSF-ICE 
  Pauline Colinet        : FMM embedding                                 
  Dipayan Datta          : RHF DLPNO-CCSD density                        
  Achintya Kumar Dutta   : EOM-CC, STEOM-CC                              
  Nicolas Foglia         : Exact transition moments, OPA infrastructure, MCD improvements    
  Dmitry Ganyushin       : Spin-Orbit,Spin-Spin,Magnetic field MRCI      
  Miquel Garcia-Rates    : C-PCM and meta-GGA Hessian, CCSD/C-PCM, Gaussian charge scheme 
  Tiago L. C. Gouveia    : GS-ROHF, GS-ROCIS                             
  Yang Guo               : DLPNO-NEVPT2, F12-NEVPT2, CIM, IAO-localization        
  Andreas Hansen         : Spin unrestricted coupled pair/coupled cluster methods 
  Ingolf Harden          : AUTO-CI MPn and infrastructure                
  Benjamin Helmich-Paris : MC-RPA, TRAH-(SCF,CASSCF), AVAS, COSX integrals, SCF dyn. polar., MC-PDFT, srDFT 
  Lee Huntington         : MR-EOM, pCC                                   
  Robert Izsak           : Overlap fitted RIJCOSX, COSX-SCS-MP3, EOM     
  Riya Kayal             : Wick's Theorem for AUTO-CI, AUTO-CI UHF-CCSDT 
  Emily Kempfer          : AUTO-CI RHF CISDT and CCSDT, approximate NEVPT4
  Christian Kollmar      : KDIIS, OOCD, Brueckner-CCSD(T), CCSD density, CASPT2, CASPT2-K, improved NEVPT2 
  Axel Koslowski         : Symmetry handling                             
  Simone Kossmann        : meta-GGA functionals, TD-DFT gradient, OOMP2, (MP2 Hessian; deprecated post 5.0) 
  Lucas Lang             : DCDCAS, Hyperfine gauge corrections, ICE-SOC+SSC
  Marvin Lechner         : AUTO-CI (C++ implementation), FIC-MRCC        
  Spencer Leger          : CASSCF response                               
  Dagmar Lenk            : GEPOL surface, SMD, ORCA-2-JSON               
  Dimitrios Liakos       : Extrapolation schemes; Compound Job, Property file
  Dimitrios Manganas     : Further ROCIS development; embedding schemes. LFT, Crystal Embedding 
  Dimitrios Pantazis     : SARC Basis sets                               
  Anastasios Papadopoulos: AUTO-CI, single reference methods and gradients 
  Taras Petrenko         : pre 6.0 DFT Hessian and TD-DFT gradient,  ECA, NRVS 
  Petra Pikulova         : Analytic Raman intensities                    
  Peter Pinski           : DLPNO-MP2, DLPNO-MP2 Gradient                 
  Shashank Vittal Rao    : ES-AILFT, MagRelax                            
  Christoph Reimann      : Effective Core Potentials                     
  Marius Retegan         : Local ZFS, SOC                                
  Christoph Riplinger    : Optimizer, TS searches, QM/MM, DLPNO-CCSD(T), (RO)-DLPNO pert. Triples 
  Michael Roemelt        : Original ROCIS implementation, recursive CI coupling coefficients
  Masaaki Saitow         : Open-shell DLPNO-CCSD energy and density      
  Barbara Sandhoefer     : DKH picture change effects                    
  Yorick L. A. Schmerwitz: GMF and freeze-and-release deltaSCF, NEB S-IDPP initial path                    
  Kantharuban Sivalingam : CASSCF convergence/infrastructure, NEVPT2, NEVPT3, NEVPT4(SD), FIC-MRCI and CEPA variants
  Bernardo de Souza      : ESD, SOC TD-DFT                               
  Georgi L. Stoychev     : AutoAux, RI-MP2 NMR, DLPNO-MP2 response, X2C  
  Van Anh Tran           : RI-MP2 g-tensors                              
  Willem Van den Heuvel  : Paramagnetic NMR                              
  Zikuan Wang            : NOTCH, Electric field optimization            
  Frank Wennmohs         : Technical directorship and infrastructure     
  Hang Xu                : AUTO-CI-Response properties                   
                                                                         
[FACCTs GmbH]                                                            
  Markus Bursch, Nicolas Foglia, Miquel Garcia-Rates, Ingolf Harden, Hagen Neugebauer, Anastasios Papadopoulos, 
  Christoph Riplinger, Bernardo de Souza, Georgi L. Stoychev                                                    
                                                                 
  APM, various basis sets, CI-OPT, improved COSX, DLPNO-Multilevel,           
  DOCKER, DRACO, updates on ESD, Fragmentator, GOAT, IRC, LR-CPCM, L-BFGS, MBIS, meta-GGA TD-DFT gradient, ML-optimized integration grids, 
  MM, NACMEs, nearIR, NEB, NEB-TS, NL-DFT gradient (VV10), 2- and 3-layer-ONIOM, interface openCOSMO-RS, QMMM,   
  Crystal-QMMM, RESP, rigid body optimization, SF, symmetry and pop. for TD-DFT, various functionals, SOLVATOR                                   
                                                                         
[Other institutions]                                                     
  V. Asgeirsson          : NEB                                           
  Christoph Bannwarth    : sTDA-DFT, sTD-DFT, PBEh-3c, B97-3c, D3        
  Giovanni Bistoni       : ETS/NOCV, ADLD/ADEX, COVALED                  
  Martin Brehm           : Molecular dynamics                            
  Ronald Cardenas        : ETS/NOCV                                      
  Martina Colucci        : COVALED                                       
  Sebastian Ehlert       : rSCAN, r2SCAN, r2SCAN-3c, D4, dhf basis sets  
  Marvin Friede          : D4 for Fr, Ra, Ac-Lr                          
  Lars Goerigk           : TD-DFT with DH, B97 family of functionals     
  Stefan Grimme          : VdW corrections, initial TS optimization, DFT functionals, gCP, sTDA/sTD-DF 
  Waldemar Hujo          : DFT-NL                                        
  H. Jonsson             : NEB                                           
  Holger Kruse           : gCP                                           
  Marcel Mueller         : wB97X-3c, vDZP basis set                      
  Hagen Neugebauer       : wr2SCAN, Native XTB                           
  Gianluca Regni         : ADLD/ADEX                                     
  Tobias Risthaus        : pre 6.0 range-separated hybrid DFT and stability analysis
  Lukas Wittmann         : regularized MP2, r2SCAN double-hybrids, wr2SCAN        
                                                                         
We gratefully acknowledge several colleagues who have allowed us to      
interface, adapt or use parts of their codes:                            
  Ed Valeev, F. Pavosevic, A. Kumar             : LibInt (2-el integral package), F12 methods 
  Garnet Chan, S. Sharma, J. Yang, R. Olivares  : DMRG                   
  Ulf Ekstrom                                   : XCFun DFT Library      
  Mihaly Kallay                                 : mrcc  (arbitrary order and MRCC methods)
  Frank Weinhold                                : gennbo (NPA and NBO analysis)           
  Simon Mueller                                 : openCOSMO-RS                            
  Christopher J. Cramer and Donald G. Truhlar   : smd solvation model                     
  S Lehtola, MJT Oliveira, MAL Marques          : LibXC Library                           
  Liviu Ungur et al                             : ANISO software                          


 Your calculation uses the libint2 library for the computation of 2-el integrals
 For citations please refer to: http://libint.valeyev.net

 Your ORCA version has been built with support for libXC version: 7.0.0
 For citations please refer to: https://libxc.gitlab.io

 This ORCA versions uses:
   CBLAS   interface :  Fast vector & matrix operations
   LAPACKE interface :  Fast linear algebra routines
   SCALAPACK package :  Parallel linear algebra routines
   Shared memory     :  Shared parallel matrices
   BLAS/LAPACK       :  OpenBLAS 0.3.29  USE64BITINT DYNAMIC_ARCH NO_AFFINITY Cooperlake SINGLE_THREADED
        Core in use  :  Cooperlake
   Copyright (c) 2011-2014, The OpenBLAS Project


  ***********************************
  * Starting time: Sun Oct 12 07:38:16 2025
  * Host name:     g06.hpc.nesi.org.nz
  * Process ID:    597655
  * Working dir.:  /nesi/nobackup/nesi99999/geoffreyweal/ORCA_tutorial/Step1_Geo_Opt/Reactants
  ***********************************

NOTE: MaxCore=2000 MB was set to SCF,MP2,MDCI,CIPSI,MRCI,RASCI and CIS
      => If you want to overwrite this, your respective input block should be placed after the MaxCore statement


***************************************
The coordinates will be read from file: reactant.xyz
***************************************


Your calculation utilizes the atom-pairwise dispersion correction
with the Becke-Johnson damping scheme (D3BJ)


Warning: RI is on but no J-basis has been assigned. Assigning Def2/J (nothing to worry about!)
================================================================================

----- Orbital basis set information -----
Your calculation utilizes the basis: def2-TZVP
   F. Weigend and R. Ahlrichs, Phys. Chem. Chem. Phys. 7, 3297 (2005).

----- AuxJ basis set information -----
Your calculation utilizes the auxiliary basis: def2/J
   H-Rn: F. Weigend, Phys. Chem. Chem. Phys. 8, 1057 (2006).
   Fr-Lr: K. Eichkorn, F. Weigend, O. Treutler, R. Ahlrichs; Theor. Chem. Acc. 97, 119 (1997).

================================================================================
                                        WARNINGS
                       Please study these warnings very carefully!
================================================================================


WARNING: Geometry Optimization
  ===> : Switching off AutoStart
         For restart on a previous wavefunction, please use MOREAD

================================================================================
                                       INPUT FILE
================================================================================
NAME = orca.inp
|  1> !B3LYP DEF2-TZVP D3BJ 
|  2> !OPT FREQ TightOPT TightSCF defgrid2
|  3> %SCF
|  4>     MaxIter 2000       # Here setting MaxIter to a very high number. Intended for systems that require sometimes 1000 iterations before converging (very rare).
|  5>     DIISMaxEq 5        # Default value is 5. A value of 15-40 necessary for difficult systems.
|  6>     directresetfreq 15 # Default value is 15. A value of 1 (very expensive) is sometimes required. A value between 1 and 15 may be more cost-effective.
|  7> END
|  8> %CPCM EPSILON 6.02 REFRAC 1.3723 END
|  9> %PAL NPROCS 32 END
| 10> %maxcore 2000 # This indicates you want ORCA to use only 2GB per core maximum, so ORCA will use only 2GB*32=64GB of memory in total.
| 11> * xyzfile 1 1 reactant.xyz
| 12> 
| 13>                          ****END OF INPUT****
================================================================================

                       *****************************
                       * Geometry Optimization Run *
                       *****************************

Geometry optimization settings:
Update method            Update   .... BFGS
Choice of coordinates    CoordSys .... (2022) Redundant Internals
Initial Hessian          InHess   .... Almloef's Model
Max. no of cycles        MaxIter  .... 54

Convergence Tolerances:
Energy Change            TolE     ....  1.0000e-06 Eh
Max. Gradient            TolMAXG  ....  1.0000e-04 Eh/bohr
RMS Gradient             TolRMSG  ....  3.0000e-05 Eh/bohr
Max. Displacement        TolMAXD  ....  1.0000e-03 bohr
RMS Displacement         TolRMSD  ....  6.0000e-04 bohr
Strict Convergence                .... False

------------------------------------------------------------------------------
                        ORCA OPTIMIZATION COORDINATE SETUP
------------------------------------------------------------------------------

The optimization will be done in redundant internal coordinates (2022)
Making redundant internal coordinates   ...  (2022 redundants) done
Evaluating the initial hessian          ...  (Almloef) done
Evaluating the coordinates              ...  done
Calculating the B-matrix                .... done
Calculating the G-matrix                .... done
The number of degrees of freedom        ....   90

    -----------------------------------------------------------------
                    Redundant Internal Coordinates


    -----------------------------------------------------------------
         Definition                    Initial Value    Approx d2E/dq
    -----------------------------------------------------------------
      1. B(C   1,C   0)                  1.3981         0.606516   
      2. B(C   2,C   1)                  1.4045         0.592440   
      3. B(C   3,C   2)                  1.4108         0.578845   
      4. B(C   4,C   3)                  1.3988         0.605010   
      5. B(C   5,C   4)                  1.3965         0.609950   
      6. B(C   5,C   0)                  1.3964         0.610349   
      7. B(H   6,C   0)                  1.0824         0.370336   
      8. B(H   7,C   5)                  1.0824         0.370319   
      9. B(H   8,C   1)                  1.0831         0.369306   
     10. B(H   9,C   3)                  1.0815         0.371586   
     11. B(H  10,C   4)                  1.0825         0.370193   
     12. B(C  11,C   2)                  1.5115         0.399889   
     13. B(N  12,C  11)                  1.4594         0.433699   
     14. B(H  13,N  12)                  1.0462         0.378804   
     15. B(H  14,N  12)                  1.0449         0.380635   
     16. B(H  15,C  11)                  1.1129         0.331052   
     17. B(H  16,C  11)                  1.1163         0.326885   
     18. B(Cu 17,H  14)                  2.0825         0.095069   
     19. B(Cu 17,N  12)                  2.0813         0.446745   
     20. A(C   1,C   0,C   5)          120.0883         0.431136   
     21. A(C   1,C   0,H   6)          119.9682         0.353270   
     22. A(C   5,C   0,H   6)          119.9435         0.353647   
     23. A(C   0,C   1,C   2)          120.5830         0.428838   
     24. A(C   2,C   1,H   8)          120.3205         0.351703   
     25. A(C   0,C   1,H   8)          119.0964         0.353103   
     26. A(C   1,C   2,C   3)          118.8793         0.425265   
     27. A(C   3,C   2,C  11)          123.1002         0.396641   
     28. A(C   1,C   2,C  11)          118.0199         0.398262   
     29. A(C   4,C   3,H   9)          118.2635         0.353323   
     30. A(C   2,C   3,H   9)          121.4403         0.350691   
     31. A(C   2,C   3,C   4)          120.2961         0.426866   
     32. A(C   3,C   4,H  10)          119.9374         0.353098   
     33. A(C   3,C   4,C   5)          120.1873         0.430893   
     34. A(C   5,C   4,H  10)          119.8752         0.353585   
     35. A(C   0,C   5,C   4)          119.9659         0.431573   
     36. A(C   4,C   5,H   7)          120.0217         0.353605   
     37. A(C   0,C   5,H   7)          120.0124         0.353644   
     38. A(H  15,C  11,H  16)          101.6361         0.282743   
     39. A(N  12,C  11,H  16)          116.4158         0.325170   
     40. A(C   2,C  11,H  16)          106.1981         0.322795   
     41. A(N  12,C  11,H  15)          109.3422         0.325848   
     42. A(C   2,C  11,H  15)          109.4648         0.323466   
     43. A(C   2,C  11,N  12)          113.0663         0.374811   
     44. A(H  14,N  12,Cu 17)           75.5309         0.370588   
     45. A(H  13,N  12,Cu 17)          112.2956         0.370281   
     46. A(C  11,N  12,Cu 17)          135.1259         0.425500   
     47. A(H  13,N  12,H  14)          107.5624         0.290955   
     48. A(C  11,N  12,H  14)          107.8808         0.330601   
     49. A(C  11,N  12,H  13)          109.0263         0.330337   
     50. A(N  12,H  14,Cu 17)           75.4019         0.269992   
     51. A(N  12,Cu 17,H  14)           29.0671         0.341085   
     52. D(H   8,C   1,C   0,C   5)    179.9918         0.025390   
     53. D(C   2,C   1,C   0,H   6)    179.9950         0.025390   
     54. D(C   2,C   1,C   0,C   5)     -0.0196         0.025390   
     55. D(H   8,C   1,C   0,H   6)      0.0065         0.025390   
     56. D(C  11,C   2,C   1,C   0)    179.8325         0.024164   
     57. D(C   3,C   2,C   1,C   0)      0.1037         0.024164   
     58. D(C  11,C   2,C   1,H   8)     -0.1791         0.024164   
     59. D(C   3,C   2,C   1,H   8)   -179.9079         0.024164   
     60. D(H   9,C   3,C   2,C  11)      0.0664         0.023016   
     61. D(H   9,C   3,C   2,C   1)    179.7806         0.023016   
     62. D(C   4,C   3,C   2,C  11)   -179.8446         0.023016   
     63. D(C   4,C   3,C   2,C   1)     -0.1304         0.023016   
     64. D(H  10,C   4,C   3,C   2)   -179.9774         0.025257   
     65. D(C   5,C   4,C   3,H   9)   -179.8404         0.025257   
     66. D(C   5,C   4,C   3,C   2)      0.0734         0.025257   
     67. D(H  10,C   4,C   3,H   9)      0.1088         0.025257   
     68. D(H   7,C   5,C   4,H  10)      0.0158         0.025694   
     69. D(C   0,C   5,C   4,H  10)   -179.9368         0.025694   
     70. D(C   0,C   5,C   4,C   3)      0.0125         0.025694   
     71. D(H   7,C   5,C   0,H   6)     -0.0067         0.025730   
     72. D(H   7,C   5,C   0,C   1)   -179.9921         0.025730   
     73. D(H   7,C   5,C   4,C   3)    179.9650         0.025694   
     74. D(C   4,C   5,C   0,H   6)    179.9459         0.025730   
     75. D(C   4,C   5,C   0,C   1)     -0.0395         0.025730   
     76. D(H  16,C  11,C   2,C   1)    -50.6055         0.011868   
     77. D(H  15,C  11,C   2,C   3)   -121.8972         0.011868   
     78. D(H  15,C  11,C   2,C   1)     58.3863         0.011868   
     79. D(N  12,C  11,C   2,C   3)      0.2649         0.011868   
     80. D(N  12,C  11,C   2,C   1)   -179.4517         0.011868   
     81. D(H  13,N  12,C  11,H  15)     53.5027         0.017186   
     82. D(H  13,N  12,C  11,C   2)    -68.7279         0.017186   
     83. D(H  14,N  12,C  11,H  16)     51.3714         0.017186   
     84. D(H  14,N  12,C  11,H  15)    -63.0253         0.017186   
     85. D(H  14,N  12,C  11,C   2)    174.7441         0.017186   
     86. D(H  13,N  12,C  11,H  16)    167.8993         0.017186   
     87. D(Cu 17,H  14,N  12,H  13)    109.2262         0.173792   
     88. D(Cu 17,H  14,N  12,C  11)   -133.2961         0.173792   
     89. D(H  14,Cu 17,N  12,H  13)   -103.3560         0.010000   
     90. D(H  14,Cu 17,N  12,C  11)    100.9675         0.010000   
    -----------------------------------------------------------------

Number of atoms                         .... 18
Number of degrees of freedom            .... 90


         *************************************************************
         *                GEOMETRY OPTIMIZATION CYCLE   1            *
         *************************************************************
---------------------------------
CARTESIAN COORDINATES (ANGSTROEM)
---------------------------------
  C     -2.781600    1.622250    1.415630
  C     -1.618540    2.388350    1.293080
  C     -0.565840    2.241090    2.211060
  C     -0.700740    1.305210    3.258090
  C     -1.866820    0.541780    3.376250
  C     -2.905890    0.699930    2.456650
  H     -3.586780    1.743900    0.702600
  H     -3.806810    0.107370    2.550290
  H     -1.539150    3.098870    0.479430
  H      0.085210    1.155620    3.985720
  H     -1.964310   -0.174370    4.182090
  C      0.666250    3.095850    2.021630
  N      1.695080    2.846550    3.026190
  H      1.356820    3.192240    3.953900
  H      2.537750    3.408140    2.768610
  H      0.379300    4.170820    2.046800
  H      0.972118    2.969356    0.955485
  Cu     3.283918    1.514932    3.211224

----------------------------
CARTESIAN COORDINATES (A.U.)
----------------------------
  NO LB      ZA    FRAG     MASS         X           Y           Z
   0 C     6.0000    0    12.011   -5.256462    3.065608    2.675153
   1 C     6.0000    0    12.011   -3.058597    4.513327    2.443567
   2 C     6.0000    0    12.011   -1.069283    4.235046    4.178298
   3 C     6.0000    0    12.011   -1.324207    2.466489    6.156898
   4 C     6.0000    0    12.011   -3.527779    1.023816    6.380188
   5 C     6.0000    0    12.011   -5.491336    1.322676    4.642396
   6 H     1.0000    0     1.008   -6.778032    3.295493    1.327722
   7 H     1.0000    0     1.008   -7.193828    0.202900    4.819350
   8 H     1.0000    0     1.008   -2.908572    5.856016    0.905991
   9 H     1.0000    0     1.008    0.161024    2.183805    7.531919
  10 H     1.0000    0     1.008   -3.712008   -0.329512    7.903005
  11 C     6.0000    0    12.011    1.259030    5.850309    3.820327
  12 N     7.0000    0    14.007    3.203237    5.379200    5.718670
  13 H     1.0000    0     1.008    2.564018    6.032459    7.471788
  14 H     1.0000    0     1.008    4.795652    6.440451    5.231915
  15 H     1.0000    0     1.008    0.716773    7.881708    3.867891
  16 H     1.0000    0     1.008    1.837036    5.611270    1.805605
  17 Cu   29.0000    0    63.550    6.205705    2.862806    6.068333

--------------------------------
INTERNAL COORDINATES (ANGSTROEM)
--------------------------------
 C      0   0   0     0.000000000000     0.00000000     0.00000000
 C      1   0   0     1.398083071960     0.00000000     0.00000000
 C      2   1   0     1.404475018646   120.58302002     0.00000000
 C      3   2   1     1.410794529795   118.87929027     0.10367133
 C      4   3   2     1.398760064092   120.29609771   359.86960815
 C      1   2   3     1.396368442389   120.08827070     0.00000000
 H      1   2   3     1.082370239705   119.96822062   179.99504593
 H      6   1   2     1.082382857218   120.01242223   180.00794146
 H      2   1   3     1.083128692723   119.09644730   180.01141483
 H      4   3   2     1.081452720881   121.44029779   179.78060160
 H      5   4   3     1.082475509284   119.93744126   180.02259809
 C      3   2   1     1.511470856682   118.01990726   179.83246995
 N     12   3   2     1.459377419484   113.06628521   180.54834572
 H     13  12   3     1.046215679389   109.02630292   291.27206507
 H     13  12   3     1.044903590481   107.88082901   174.74410670
 H     12   3   2     1.112894573758   109.46481189    58.38630796
 H     12   3   2     1.116342846226   106.19814164   309.39452039
 Cu    13  12   3     2.081309687756   135.12594468    87.49887386

---------------------------
INTERNAL COORDINATES (A.U.)
---------------------------
 C      0   0   0     0.000000000000     0.00000000     0.00000000
 C      1   0   0     2.641994118475     0.00000000     0.00000000
 C      2   1   0     2.654073147174   120.58302002     0.00000000
 C      3   2   1     2.666015292547   118.87929027     0.10367133
 C      4   3   2     2.643273448201   120.29609771   359.86960815
 C      1   2   3     2.638753938165   120.08827070     0.00000000
 H      1   2   3     2.045383328550   119.96822062   179.99504593
 H      6   1   2     2.045407172194   120.01242223   180.00794146
 H      2   1   3     2.046816597039   119.09644730   180.01141483
 H      4   3   2     2.043649469248   121.44029779   179.78060160
 H      5   4   3     2.045582259224   119.93744126   180.02259809
 C      3   2   1     2.856265978533   118.01990726   179.83246995
 N     12   3   2     2.757823648854   113.06628521   180.54834572
 H     13  12   3     1.977061111060   109.02630292   291.27206507
 H     13  12   3     1.974581622360   107.88082901   174.74410670
 H     12   3   2     2.103065960330   109.46481189    58.38630796
 H     12   3   2     2.109582250929   106.19814164   309.39452039
 Cu    13  12   3     3.933105309736   135.12594468    87.49887386

---------------------
BASIS SET INFORMATION
---------------------
There are 4 groups of distinct atoms

 Group   1 Type C   : 11s6p2d1f contracted to 5s3p2d1f pattern {62111/411/11/1}
 Group   2 Type H   : 5s1p contracted to 3s1p pattern {311/1}
 Group   3 Type N   : 11s6p2d1f contracted to 5s3p2d1f pattern {62111/411/11/1}
 Group   4 Type Cu  : 17s11p7d1f contracted to 6s4p4d1f pattern {842111/6311/4111/1}

Atom   0C    basis set group =>   1
Atom   1C    basis set group =>   1
Atom   2C    basis set group =>   1
Atom   3C    basis set group =>   1
Atom   4C    basis set group =>   1
Atom   5C    basis set group =>   1
Atom   6H    basis set group =>   2
Atom   7H    basis set group =>   2
Atom   8H    basis set group =>   2
Atom   9H    basis set group =>   2
Atom  10H    basis set group =>   2
Atom  11C    basis set group =>   1
Atom  12N    basis set group =>   3
Atom  13H    basis set group =>   2
Atom  14H    basis set group =>   2
Atom  15H    basis set group =>   2
Atom  16H    basis set group =>   2
Atom  17Cu   basis set group =>   4
---------------------------------
AUXILIARY/J BASIS SET INFORMATION
---------------------------------
There are 4 groups of distinct atoms

 Group   1 Type C   : 12s5p4d2f1g contracted to 6s4p3d1f1g pattern {711111/2111/211/2/1}
 Group   2 Type H   : 5s2p1d contracted to 3s1p1d pattern {311/2/1}
 Group   3 Type N   : 12s5p4d2f1g contracted to 6s4p3d1f1g pattern {711111/2111/211/2/1}
 Group   4 Type Cu  : 19s5p5d3f3g contracted to 8s5p4d3f3g pattern {121111111/11111/2111/111/111}

Atom   0C    basis set group =>   1
Atom   1C    basis set group =>   1
Atom   2C    basis set group =>   1
Atom   3C    basis set group =>   1
Atom   4C    basis set group =>   1
Atom   5C    basis set group =>   1
Atom   6H    basis set group =>   2
Atom   7H    basis set group =>   2
Atom   8H    basis set group =>   2
Atom   9H    basis set group =>   2
Atom  10H    basis set group =>   2
Atom  11C    basis set group =>   1
Atom  12N    basis set group =>   3
Atom  13H    basis set group =>   2
Atom  14H    basis set group =>   2
Atom  15H    basis set group =>   2
Atom  16H    basis set group =>   2
Atom  17Cu   basis set group =>   4


           ************************************************************
           *        Program running with 32 parallel MPI-processes    *
           *              working on a common directory               *
           ************************************************************
------------------------------------------------------------------------------
                             ORCA STARTUP CALCULATIONS
                           -- RI-GTO INTEGRALS CHOSEN --
------------------------------------------------------------------------------
------------------------------------------------------------------------------
                   ___                                                        
                  /   \      - P O W E R E D   B Y -                         
                 /     \                                                     
                 |  |  |   _    _      __       _____    __    __             
                 |  |  |  | |  | |    /  \     |  _  \  |  |  /  |          
                  \  \/   | |  | |   /    \    | | | |  |  | /  /          
                 / \  \   | |__| |  /  /\  \   | |_| |  |  |/  /          
                |  |  |   |  __  | /  /__\  \  |    /   |      \           
                |  |  |   | |  | | |   __   |  |    \   |  |\   \          
                \     /   | |  | | |  |  |  |  | |\  \  |  | \   \       
                 \___/    |_|  |_| |__|  |__|  |_| \__\ |__|  \__/        
                                                                              
                      - O R C A' S   B I G   F R I E N D -                    
                                      &                                       
                       - I N T E G R A L  F E E D E R -                       
                                                                              
 v1 FN, 2020, v2 2021, v3 2022-2024                                           
------------------------------------------------------------------------------


----------------------
SHARK INTEGRAL PACKAGE
----------------------

Number of atoms                             ...     18
Number of basis functions                   ...    347
Number of shells                            ...    139
Maximum angular momentum                    ...      3
Integral batch strategy                     ... SHARK/LIBINT Hybrid
RI-J (if used) integral strategy            ... SPLIT-RIJ (Revised 2003 algorithm where possible)
Printlevel                                  ...      1
Contraction scheme used                     ... SEGMENTED contraction
Prescreening option                         ... SCHWARTZ
   Thresh                                   ... 2.500e-11
   Tcut                                     ... 2.500e-12
   Tpresel                                  ... 2.500e-12 
Coulomb Range Separation                    ... NOT USED
Exchange Range Separation                   ... NOT USED
Multipole approximations                    ... NOT USED
Finite Nucleus Model                        ... NOT USED
CABS basis                                  ... NOT available
Auxiliary Coulomb fitting basis             ... AVAILABLE
   # of basis functions in Aux-J            ...    582
   # of shells in Aux-J                     ...    188
   Maximum angular momentum in Aux-J        ...      4
Auxiliary J/K fitting basis                 ... NOT available
Auxiliary Correlation fitting basis         ... NOT available
Auxiliary 'external' fitting basis          ... NOT available

Checking pre-screening integrals            ... done (  0.0 sec) Dimension = 139
   => SHARK Basis and OBASIS are compatible. Storing Pre-screening
Shell pair information
Shell pair cut-off parameter TPreSel        ...   2.5e-12
Total number of shell pairs                 ...      9730
Shell pairs after pre-screening             ...      8465
Total number of primitive shell pairs       ...     31637
Primitive shell pairs kept                  ...     19681
          la=0 lb=0:   2283 shell pairs
          la=1 lb=0:   2360 shell pairs
          la=1 lb=1:    632 shell pairs
          la=2 lb=0:   1286 shell pairs
          la=2 lb=1:    667 shell pairs
          la=2 lb=2:    191 shell pairs
          la=3 lb=0:    556 shell pairs
          la=3 lb=1:    293 shell pairs
          la=3 lb=2:    158 shell pairs
          la=3 lb=3:     39 shell pairs

Checking whether 4 symmetric matrices of dimension 347 fit in memory
:Max Core in MB      =   2000.00
 MB in use           =     14.10
 MB left             =   1985.90
 MB needed           =      1.84
 Data fit in memory  = YES
Calculating RI/J V-Matrix + Cholesky decomp.... done (  0.2 sec)
Calculating Nuclear repulsion               ... done (  0.0 sec) ENN=    564.978805766014 Eh

Diagonalization of the overlap matrix:
Smallest eigenvalue                        ... 9.004e-06
Time for diagonalization                   ...    0.013 sec
Threshold for overlap eigenvalues          ... 1.000e-07
Number of eigenvalues below threshold      ... 0
Time for construction of square roots      ...    0.010 sec
Total time needed                          ...    0.028 sec

-------------------
DFT GRID GENERATION
-------------------

General Integration Accuracy     IntAcc      ... 4.388
Radial Grid Type                 RadialGrid  ... OptM3 with GC (2021)
Angular Grid (max. ang.)         AngularGrid ... 4 (Lebedev-302)
Angular grid pruning method      GridPruning ... 4 (adaptive)
Weight generation scheme         WeightScheme... mBecke (2022)
Basis function cutoff            BFCut       ... 1.0000e-11
Integration weight cutoff        WCut        ... 1.0000e-14
Partially contracted basis set               ... off
Rotationally invariant grid construction     ... off
Angular grids for H and He will be reduced by one unit
Core-polarized basis detected: some atoms will have their core
                               angular grid increased.

Total number of grid points                  ...    88183
Total number of batches                      ...     1384
Average number of points per batch           ...       63
Average number of grid points per atom       ...     4899

--------------------
COSX GRID GENERATION
--------------------

GRIDX 1
-------
General Integration Accuracy     IntAcc      ... 3.816
Radial Grid Type                 RadialGrid  ... OptM3 with GC (2021)
Angular Grid (max. ang.)         AngularGrid ... 1 (Lebedev-50)
Angular grid pruning method      GridPruning ... 4 (adaptive)
Weight generation scheme         WeightScheme... mBecke (2022)
Basis function cutoff            BFCut       ... 1.0000e-11
Integration weight cutoff        WCut        ... 1.0000e-14
Partially contracted basis set               ... on
Rotationally invariant grid construction     ... off
Angular grids for H and He will be reduced by one unit
Core-polarized basis detected: some atoms will have their core
                               angular grid increased.

Total number of grid points                  ...    15815
Total number of batches                      ...      133
Average number of points per batch           ...      118
Average number of grid points per atom       ...      879
UseSFitting                                  ... on

GRIDX 2
-------
General Integration Accuracy     IntAcc      ... 4.020
Radial Grid Type                 RadialGrid  ... OptM3 with GC (2021)
Angular Grid (max. ang.)         AngularGrid ... 2 (Lebedev-110)
Angular grid pruning method      GridPruning ... 4 (adaptive)
Weight generation scheme         WeightScheme... mBecke (2022)
Basis function cutoff            BFCut       ... 1.0000e-11
Integration weight cutoff        WCut        ... 1.0000e-14
Partially contracted basis set               ... on
Rotationally invariant grid construction     ... off
Angular grids for H and He will be reduced by one unit
Core-polarized basis detected: some atoms will have their core
                               angular grid increased.

Total number of grid points                  ...    27136
Total number of batches                      ...      221
Average number of points per batch           ...      122
Average number of grid points per atom       ...     1508
UseSFitting                                  ... on

GRIDX 3
-------
General Integration Accuracy     IntAcc      ... 4.338
Radial Grid Type                 RadialGrid  ... OptM3 with GC (2021)
Angular Grid (max. ang.)         AngularGrid ... 3 (Lebedev-194)
Angular grid pruning method      GridPruning ... 4 (adaptive)
Weight generation scheme         WeightScheme... mBecke (2022)
Basis function cutoff            BFCut       ... 1.0000e-11
Integration weight cutoff        WCut        ... 1.0000e-14
Partially contracted basis set               ... on
Rotationally invariant grid construction     ... off
Angular grids for H and He will be reduced by one unit
Core-polarized basis detected: some atoms will have their core
                               angular grid increased.

Total number of grid points                  ...    52400
Total number of batches                      ...      420
Average number of points per batch           ...      124
Average number of grid points per atom       ...     2911
UseSFitting                                  ... on
Grids setup in   1.3 sec
Initializing property integral containers    ... done (  0.0 sec)

SHARK setup successfully completed in   1.9 seconds

Maximum memory used throughout the entire STARTUP-calculation: 34.1 MB


           ************************************************************
           *        Program running with 32 parallel MPI-processes    *
           *              working on a common directory               *
           ************************************************************
-------------------------------------------------------------------------------
                                 ORCA GUESS
                   Start orbitals & Density for SCF / CASSCF
-------------------------------------------------------------------------------

------------
SCF SETTINGS
------------
Hamiltonian:
 Density Functional     Method          .... DFT(GTOs)
 Exchange Functional    Exchange        .... B88
   X-Alpha parameter    XAlpha          ....  0.666667
   Becke's b parameter  XBeta           ....  0.004200
 Correlation Functional Correlation     .... LYP
 LDA part of GGA corr.  LDAOpt          .... VWN-5
 Gradients option       PostSCFGGA      .... off
 Hybrid DFT is turned on
   Fraction HF Exchange ScalHFX         ....  0.200000
   Scaling of DF-GGA-X  ScalDFX         ....  0.720000
   Scaling of DF-GGA-C  ScalDFC         ....  0.810000
   Scaling of DF-LDA-C  ScalLDAC        ....  1.000000
   Perturbative correction              ....  0.000000
   NL short-range parameter             ....  4.800000
 RI-approximation to the Coulomb term is turned on
   Number of AuxJ basis functions       .... 582
   RIJ-COSX (HFX calculated with COS-X)).... on


General Settings:
 Integral files         IntName         .... orca
 Hartree-Fock type      HFTyp           .... RHF
 Total Charge           Charge          ....    1
 Multiplicity           Mult            ....    1
 Number of Electrons    NEL             ....   86
 Basis Dimension        Dim             ....  347
 Nuclear Repulsion      ENuc            ....    564.9788057660 Eh

Convergence Acceleration:
 AO-DIIS                CNVDIIS         .... on
   Start iteration      DIISMaxIt       ....    12
   Startup error        DIISStart       ....  0.200000
   # of expansion vecs  DIISMaxEq       ....     5
   Bias factor          DIISBfac        ....   1.050
   Max. coefficient     DIISMaxC        ....  10.000
 MO-DIIS                CNVKDIIS        .... off
 Trust-Rad. Augm. Hess. CNVTRAH         .... auto
   Auto Start mean grad. ratio tolernc. ....  1.125000
   Auto Start start iteration           ....    50
   Auto Start num. interpolation iter.  ....    10
   Max. Number of Micro iterations      ....    24
   Max. Number of Macro iterations      .... Maxiter - #DIIS iter
   Number of Davidson start vectors     ....     2
   Converg. threshold    (grad. norm)   ....   1.000e-05
   Grad. Scal. Fac. for Micro threshold ....   0.100
   Minimum threshold for Micro iter.    ....   1.000e-02
   NR start threshold (gradient norm)   ....   1.000e-04
   Initial trust radius                 ....   0.400
   Minimum AH scaling param. (alpha)    ....   1.000
   Maximum AH scaling param. (alpha)    .... 1000.000
   Quad. conv. algorithm                .... NR
   White noise on init. David. guess    .... on
   Maximum white noise                  ....   0.010
   Pseudo random numbers                .... off
   Inactive MOs                         .... canonical
   Orbital update algorithm             .... Taylor
   Preconditioner                       .... Diag
   Full preconditioner red. dimension   ....   250
 SOSCF                 CNVSOSCF           .... on
   Start iteration     SOSCFMaxIt         ....   150
   Startup grad/error  SOSCFStart         ....  0.003300
   Hessian update      SOSCFHessUp        .... L-BFGS
   Autom. constraints  SOSCFAutoConstrain .... off
 Level Shifting         CNVShift        .... on
   Level shift para.    LevelShift      ....    0.2500
   Turn off err/grad.   ShiftErr        ....    0.0010
 Zerner damping         CNVZerner       .... off
 Static damping         CNVDamp         .... on
   Fraction old density DampFac         ....    0.7000
   Max. Damping (<1)    DampMax         ....    0.9800
   Min. Damping (>=0)   DampMin         ....    0.0000
   Turn off err/grad.   DampErr         ....    0.1000

SCF Procedure:
 Maximum # iterations   MaxIter         ....  2000
 SCF integral mode      SCFMode         .... Direct
   Integral package                     .... SHARK and LIBINT hybrid scheme
 Reset frequency        DirectResetFreq ....    15
 Integral Threshold     Thresh          ....  2.500e-11 Eh
 Primitive CutOff       TCut            ....  2.500e-12 Eh

Convergence Tolerance:
 Convergence Check Mode ConvCheckMode   .... Total+1el-Energy
 Convergence forced     ConvForced      .... 0
 Energy Change          TolE            ....  1.000e-08 Eh
 1-El. energy change                    ....  1.000e-05 Eh
 Orbital Gradient       TolG            ....  1.000e-05
 Orbital Rotation angle TolX            ....  1.000e-05
 DIIS Error             TolErr          ....  5.000e-07

------------------------------
INITIAL GUESS: MODEL POTENTIAL
------------------------------
Loading Hartree-Fock densities                     ... done
Calculating cut-offs                               ... done
Initializing the effective Hamiltonian             ... done
Setting up the integral package (SHARK)            ... done
Starting the Coulomb interaction                   ... done (   0.0 sec)
Making the grid                                    ... done (   0.2 sec)
Mapping shells                                     ... done
Starting the XC term evaluation                    ... done (   0.0 sec)
  promolecular density results
     # of electrons  =     86.987189248
     EX              =   -111.017256173
     EC              =     -3.297854786
     EX+EC           =   -114.315110960
Transforming the Hamiltonian                       ... done (   0.0 sec)
Diagonalizing the Hamiltonian                      ... done (   0.0 sec)
Back transforming the eigenvectors                 ... done (   0.0 sec)
Now organizing SCF variables                       ... done
                      ------------------
                      INITIAL GUESS DONE (   0.3 sec)
                      ------------------
             **** ENERGY FILE WAS UPDATED (orca.en.tmp) ****
Finished Guess after   1.3 sec
Maximum memory used throughout the entire GUESS-calculation: 19.5 MB


           ************************************************************
           *        Program running with 32 parallel MPI-processes    *
           *              working on a common directory               *
           ************************************************************

-------------------------------------------------------------------------------------------
                                      ORCA LEAN-SCF
                              memory conserving SCF solver
-------------------------------------------------------------------------------------------

--------------------
CPCM SOLVATION MODEL
--------------------
CPCM parameters:
  Epsilon                                         ...       6.0200
  Refrac                                          ...       1.3723
  Rsolv                                           ...       1.3000
  Surface type                                    ... GAUSSIAN VDW
  Discretization scheme                           ... Constant charge density
    Threshold for H atoms                         ...       5.0000 (charges/Ang^2)
    Threshold for non-H atoms                     ...       5.0000 (charges/Ang^2)
  Epsilon function type                           ...         CPCM
Solvent:                                          ... CUSTOM
Radii:
  Scheme                                          ... Element-dependent radii
  Radius for C  used is    3.8550 Bohr (=   2.0400 Ang.)
  Radius for H  used is    2.4944 Bohr (=   1.3200 Ang.)
  Radius for N  used is    3.5149 Bohr (=   1.8600 Ang.)
  Radius for Cu used is    3.1747 Bohr (=   1.6800 Ang.)
Calculating surface                               ...        done! (  0.0s)
Cavity surface points                             ...         1667
Cavity Volume                                     ...    1099.5261
Cavity Surface-area                               ...     636.4651
Calculating surface distance matrix               ...        done! (  0.0s)
Performing Cholesky decomposition & store         ...        done! (  0.1s)
Overall time for CPCM initialization              ...                 0.1s

----------------------------------------D-I-I-S--------------------------------------------
Iteration    Energy (Eh)           Delta-E    RMSDP     MaxDP     DIISErr   Damp  Time(sec)
-------------------------------------------------------------------------------------------
               ***  Starting incremental Fock matrix formation  ***
    1    -1966.9074441634170398     0.00e+00  7.27e-03  3.94e-02  2.14e-01  0.700   1.3
    2    -1967.0115984527492401    -1.04e-01  4.98e-03  2.55e-02  9.40e-02  0.700   0.8
                               ***Turning on AO-DIIS***
    3    -1967.0542083619429832    -4.26e-02  2.14e-03  1.05e-02  3.02e-02  0.700   0.8
    4    -1967.0796659001748594    -2.55e-02  3.69e-03  1.47e-02  1.55e-02  0.000   0.8
    5    -1967.1353472993373543    -5.57e-02  9.72e-04  5.32e-03  1.42e-02  0.000   0.9
    6    -1967.1357112127075197    -3.64e-04  4.52e-04  2.85e-03  1.26e-02  0.000   0.8
                              *** Initializing SOSCF ***
---------------------------------------S-O-S-C-F--------------------------------------
Iteration    Energy (Eh)           Delta-E    RMSDP     MaxDP     MaxGrad    Time(sec)
--------------------------------------------------------------------------------------
    7    -1967.1358674930474990    -1.56e-04  2.22e-04  1.21e-03  1.67e-03     1.0
               *** Restarting incremental Fock matrix formation ***
    8    -1967.1358956637209303    -2.82e-05  1.59e-04  7.13e-04  2.48e-04     1.3
    9    -1967.1358960174338790    -3.54e-07  7.96e-05  6.59e-04  4.05e-04     1.9
   10    -1967.1358974880540700    -1.47e-06  5.45e-05  2.30e-04  2.03e-04     1.8
   11    -1967.1358972636480758     2.24e-07  2.66e-05  2.86e-04  1.63e-04     1.7
   12    -1967.1358978591124469    -5.95e-07  1.87e-05  1.05e-04  2.06e-05     1.0
   13    -1967.1358978561097501     3.00e-09  4.85e-06  2.66e-05  8.03e-06     1.0
                 **** Energy Check signals convergence ****

               *****************************************************
               *                     SUCCESS                       *
               *           SCF CONVERGED AFTER  13 CYCLES          *
               *****************************************************

Recomputing exchange energy using gridx3       ... done (    1.257 sec)
Old exchange energy                            :    -22.305027377 Eh
New exchange energy                            :    -22.305012637 Eh
Exchange energy change after final integration :      0.000014740 Eh
Total energy after final integration           :  -1967.135883137 Eh
             **** ENERGY FILE WAS UPDATED (orca.en.tmp) ****

----------------
TOTAL SCF ENERGY
----------------

Total Energy       :      -1967.13588313697505 Eh          -53528.48872 eV

Components:
Nuclear Repulsion  :        564.97880576601392 Eh           15373.85490 eV
Electronic Energy  :      -2532.00631459980104 Eh          -68899.39460 eV
One Electron Energy:      -3835.83244484637771 Eh         -104378.30731 eV
Two Electron Energy:       1303.82613024657644 Eh           35478.91272 eV
CPCM Dielectric    :         -0.10838904314743 Eh              -2.94942 eV

Virial components:
Potential Energy   :      -3929.98751756741058 Eh         -106940.39710 eV
Kinetic Energy     :       1962.85163443043575 Eh           53411.90838 eV
Virial Ratio       :          2.00218266558276

DFT components:
N(Alpha)           :       42.999981786547 electrons
N(Beta)            :       42.999981786547 electrons
N(Total)           :       85.999963573093 electrons
E(X)               :      -88.866618400157 Eh       
E(C)               :       -3.851195164913 Eh       
E(XC)              :      -92.717813565070 Eh       

CPCM Solvation Model Properties:
Surface-charge          :         -1.03074720215856
Corrected charge        :         -1.00000000000000
Outlying charge corr.   :          0.00005705610647 Eh               0.00155 eV
Free-energy (cav+disp)  :  This term is not implemented in the current solvation scheme

---------------
SCF CONVERGENCE
---------------

  Last Energy change         ...   -3.0027e-09  Tolerance :   1.0000e-08
  Last MAX-Density change    ...    2.6559e-05  Tolerance :   1.0000e-07
  Last RMS-Density change    ...    4.8523e-06  Tolerance :   5.0000e-09
  Last DIIS Error            ...    1.6716e-03  Tolerance :   5.0000e-07
  Last Orbital Gradient      ...    8.0291e-06  Tolerance :   1.0000e-05
  Last Orbital Rotation      ...    1.9233e-05  Tolerance :   1.0000e-05


----------------
ORBITAL ENERGIES
----------------

  NO   OCC          E(Eh)            E(eV) 
   0   2.0000    -323.033740     -8790.1950 
   1   2.0000     -38.820173     -1056.3506 
   2   2.0000     -34.025281      -925.8750 
   3   2.0000     -34.025231      -925.8736 
   4   2.0000     -34.024915      -925.8650 
   5   2.0000     -14.390177      -391.5766 
   6   2.0000     -10.240937      -278.6701 
   7   2.0000     -10.208281      -277.7815 
   8   2.0000     -10.193829      -277.3882 
   9   2.0000     -10.191807      -277.3332 
  10   2.0000     -10.191376      -277.3214 
  11   2.0000     -10.190957      -277.3100 
  12   2.0000     -10.187879      -277.2263 
  13   2.0000      -4.314661      -117.4079 
  14   2.0000      -2.810855       -76.4873 
  15   2.0000      -2.809005       -76.4369 
  16   2.0000      -2.808720       -76.4292 
  17   2.0000      -0.952073       -25.9072 
  18   2.0000      -0.871557       -23.7163 
  19   2.0000      -0.783506       -21.3203 
  20   2.0000      -0.762809       -20.7571 
  21   2.0000      -0.697285       -18.9741 
  22   2.0000      -0.625127       -17.0106 
  23   2.0000      -0.603184       -16.4135 
  24   2.0000      -0.559072       -15.2131 
  25   2.0000      -0.528389       -14.3782 
  26   2.0000      -0.509309       -13.8590 
  27   2.0000      -0.476359       -12.9624 
  28   2.0000      -0.463414       -12.6101 
  29   2.0000      -0.451131       -12.2759 
  30   2.0000      -0.437121       -11.8947 
  31   2.0000      -0.421658       -11.4739 
  32   2.0000      -0.383988       -10.4488 
  33   2.0000      -0.365786        -9.9535 
  34   2.0000      -0.362422        -9.8620 
  35   2.0000      -0.353150        -9.6097 
  36   2.0000      -0.304639        -8.2897 
  37   2.0000      -0.303586        -8.2610 
  38   2.0000      -0.302933        -8.2432 
  39   2.0000      -0.301794        -8.2122 
  40   2.0000      -0.283613        -7.7175 
  41   2.0000      -0.274587        -7.4719 
  42   2.0000      -0.264666        -7.2019 
  43   0.0000      -0.109892        -2.9903 
  44   0.0000      -0.035659        -0.9703 
  45   0.0000      -0.030200        -0.8218 
  46   0.0000       0.005955         0.1621 
  47   0.0000       0.027562         0.7500 
  48   0.0000       0.035482         0.9655 
  49   0.0000       0.046391         1.2624 
  50   0.0000       0.062893         1.7114 
  51   0.0000       0.071879         1.9559 
  52   0.0000       0.079696         2.1686 
  53   0.0000       0.093023         2.5313 
*Only the first 10 virtual orbitals were printed.

                    ********************************
                    * MULLIKEN POPULATION ANALYSIS *
                    ********************************

-----------------------
MULLIKEN ATOMIC CHARGES
-----------------------
   0 C :   -0.123600
   1 C :   -0.227893
   2 C :    0.134328
   3 C :   -0.213472
   4 C :   -0.136832
   5 C :   -0.146472
   6 H :    0.141532
   7 H :    0.141061
   8 H :    0.135918
   9 H :    0.130959
  10 H :    0.139705
  11 C :   -0.074619
  12 N :   -0.471405
  13 H :    0.294474
  14 H :    0.285784
  15 H :    0.142529
  16 H :    0.149331
  17 Cu:    0.698673
Sum of atomic charges:    1.0000000

--------------------------------
MULLIKEN REDUCED ORBITAL CHARGES
--------------------------------
  0 C s       :     3.215858  s :     3.215858
      pz      :     0.949316  p :     2.819783
      px      :     0.943454
      py      :     0.927013
      dz2     :     0.013549  d :     0.080710
      dxz     :     0.022292
      dyz     :     0.010947
      dx2y2   :     0.020274
      dxy     :     0.013647
      f0      :     0.001174  f :     0.007249
      f+1     :     0.000649
      f-1     :     0.000847
      f+2     :     0.001004
      f-2     :     0.001529
      f+3     :     0.001447
      f-3     :     0.000598

  1 C s       :     3.272899  s :     3.272899
      pz      :     0.967859  p :     2.869914
      px      :     0.921015
      py      :     0.981040
      dz2     :     0.011285  d :     0.077813
      dxz     :     0.017782
      dyz     :     0.014885
      dx2y2   :     0.019346
      dxy     :     0.014515
      f0      :     0.000815  f :     0.007268
      f+1     :     0.001073
      f-1     :     0.000730
      f+2     :     0.000916
      f-2     :     0.001537
      f+3     :     0.001371
      f-3     :     0.000827

  2 C s       :     3.177797  s :     3.177797
      pz      :     0.855937  p :     2.557830
      px      :     0.844744
      py      :     0.857148
      dz2     :     0.027718  d :     0.120318
      dxz     :     0.028034
      dyz     :     0.015078
      dx2y2   :     0.025884
      dxy     :     0.023603
      f0      :     0.001432  f :     0.009728
      f+1     :     0.001474
      f-1     :     0.001001
      f+2     :     0.001150
      f-2     :     0.002048
      f+3     :     0.001322
      f-3     :     0.001302

  3 C s       :     3.252566  s :     3.252566
      pz      :     0.953127  p :     2.873344
      px      :     0.977162
      py      :     0.943056
      dz2     :     0.012859  d :     0.080309
      dxz     :     0.023219
      dyz     :     0.010731
      dx2y2   :     0.020834
      dxy     :     0.012666
      f0      :     0.001104  f :     0.007253
      f+1     :     0.000677
      f-1     :     0.000885
      f+2     :     0.001022
      f-2     :     0.001533
      f+3     :     0.001401
      f-3     :     0.000631

  4 C s       :     3.224860  s :     3.224860
      pz      :     0.961682  p :     2.823446
      px      :     0.904538
      py      :     0.957225
      dz2     :     0.012715  d :     0.081243
      dxz     :     0.017681
      dyz     :     0.014319
      dx2y2   :     0.020515
      dxy     :     0.016013
      f0      :     0.000874  f :     0.007283
      f+1     :     0.001035
      f-1     :     0.000730
      f+2     :     0.000904
      f-2     :     0.001557
      f+3     :     0.001407
      f-3     :     0.000776

  5 C s       :     3.222704  s :     3.222704
      pz      :     0.915824  p :     2.837512
      px      :     0.964367
      py      :     0.957322
      dz2     :     0.023864  d :     0.079077
      dxz     :     0.014949
      dyz     :     0.013028
      dx2y2   :     0.010257
      dxy     :     0.016980
      f0      :     0.001006  f :     0.007178
      f+1     :     0.001221
      f-1     :     0.000868
      f+2     :     0.000975
      f-2     :     0.001625
      f+3     :     0.000521
      f-3     :     0.000961

  6 H s       :     0.836202  s :     0.836202
      pz      :     0.008465  p :     0.022266
      px      :     0.009557
      py      :     0.004244

  7 H s       :     0.836640  s :     0.836640
      pz      :     0.004035  p :     0.022299
      px      :     0.010973
      py      :     0.007291

  8 H s       :     0.841798  s :     0.841798
      pz      :     0.009870  p :     0.022284
      px      :     0.003822
      py      :     0.008592

  9 H s       :     0.846317  s :     0.846317
      pz      :     0.008728  p :     0.022724
      px      :     0.009463
      py      :     0.004532

 10 H s       :     0.838035  s :     0.838035
      pz      :     0.009719  p :     0.022260
      px      :     0.003831
      py      :     0.008711

 11 C s       :     3.217778  s :     3.217778
      pz      :     0.921240  p :     2.739145
      px      :     0.836279
      py      :     0.981626
      dz2     :     0.026523  d :     0.109083
      dxz     :     0.020801
      dyz     :     0.012115
      dx2y2   :     0.027799
      dxy     :     0.021845
      f0      :     0.001266  f :     0.008614
      f+1     :     0.001898
      f-1     :     0.000399
      f+2     :     0.000955
      f-2     :     0.001666
      f+3     :     0.001287
      f-3     :     0.001144

 12 N s       :     3.548689  s :     3.548689
      pz      :     1.169599  p :     3.872824
      px      :     1.143620
      py      :     1.559605
      dz2     :     0.013017  d :     0.047418
      dxz     :     0.006922
      dyz     :     0.007977
      dx2y2   :     0.006365
      dxy     :     0.013137
      f0      :     0.000323  f :     0.002474
      f+1     :     0.000572
      f-1     :     0.000232
      f+2     :     0.000337
      f-2     :     0.000324
      f+3     :     0.000214
      f-3     :     0.000472

 13 H s       :     0.670952  s :     0.670952
      pz      :     0.016604  p :     0.034575
      px      :     0.007235
      py      :     0.010737

 14 H s       :     0.680657  s :     0.680657
      pz      :     0.006323  p :     0.033559
      px      :     0.015171
      py      :     0.012066

 15 H s       :     0.836524  s :     0.836524
      pz      :     0.003829  p :     0.020947
      px      :     0.004297
      py      :     0.012822

 16 H s       :     0.829661  s :     0.829661
      pz      :     0.012804  p :     0.021008
      px      :     0.003782
      py      :     0.004423

 17 Cus       :     6.270393  s :     6.270393
      pz      :     4.004767  p :    12.095748
      px      :     4.055403
      py      :     4.035579
      dz2     :     1.988112  d :     9.935133
      dxz     :     1.996465
      dyz     :     1.997829
      dx2y2   :     1.990862
      dxy     :     1.961866
      f0      :     0.000003  f :     0.000053
      f+1     :     0.000008
      f-1     :     0.000005
      f+2     :     0.000002
      f-2     :     0.000005
      f+3     :     0.000011
      f-3     :     0.000018



                     *******************************
                     * LOEWDIN POPULATION ANALYSIS *
                     *******************************

----------------------
LOEWDIN ATOMIC CHARGES
----------------------
   0 C :   -0.137559
   1 C :   -0.112587
   2 C :   -0.148808
   3 C :   -0.123072
   4 C :   -0.140859
   5 C :   -0.144781
   6 H :    0.149222
   7 H :    0.148137
   8 H :    0.152083
   9 H :    0.148970
  10 H :    0.148383
  11 C :   -0.252002
  12 N :   -0.024977
  13 H :    0.215241
  14 H :    0.212281
  15 H :    0.148521
  16 H :    0.158502
  17 Cu:    0.603307

-------------------------------
LOEWDIN REDUCED ORBITAL CHARGES
-------------------------------
  0 C s       :     2.770346  s :     2.770346
      pz      :     0.974827  p :     2.942821
      px      :     0.995079
      py      :     0.972915
      dz2     :     0.058992  d :     0.382008
      dxz     :     0.109411
      dyz     :     0.057064
      dx2y2   :     0.085217
      dxy     :     0.071325
      f0      :     0.007027  f :     0.042384
      f+1     :     0.004280
      f-1     :     0.005621
      f+2     :     0.004768
      f-2     :     0.007947
      f+3     :     0.007809
      f-3     :     0.004933

  1 C s       :     2.762694  s :     2.762694
      pz      :     0.962311  p :     2.934342
      px      :     1.022498
      py      :     0.949533
      dz2     :     0.056959  d :     0.373930
      dxz     :     0.084162
      dyz     :     0.069483
      dx2y2   :     0.088926
      dxy     :     0.074400
      f0      :     0.005391  f :     0.041622
      f+1     :     0.007076
      f-1     :     0.003355
      f+2     :     0.004866
      f-2     :     0.007759
      f+3     :     0.007303
      f-3     :     0.005873

  2 C s       :     2.719863  s :     2.719863
      pz      :     0.979946  p :     2.867806
      px      :     0.962472
      py      :     0.925387
      dz2     :     0.111014  d :     0.506299
      dxz     :     0.114426
      dyz     :     0.079321
      dx2y2   :     0.095316
      dxy     :     0.106222
      f0      :     0.007437  f :     0.054841
      f+1     :     0.008751
      f-1     :     0.006251
      f+2     :     0.006825
      f-2     :     0.010765
      f+3     :     0.008351
      f-3     :     0.006462

  3 C s       :     2.763866  s :     2.763866
      pz      :     0.970110  p :     2.945303
      px      :     1.001412
      py      :     0.973782
      dz2     :     0.056796  d :     0.372694
      dxz     :     0.107518
      dyz     :     0.055610
      dx2y2   :     0.083695
      dxy     :     0.069074
      f0      :     0.006679  f :     0.041208
      f+1     :     0.004256
      f-1     :     0.005483
      f+2     :     0.004591
      f-2     :     0.007671
      f+3     :     0.007631
      f-3     :     0.004898

  4 C s       :     2.770644  s :     2.770644
      pz      :     0.966703  p :     2.945178
      px      :     1.035631
      py      :     0.942844
      dz2     :     0.058234  d :     0.382715
      dxz     :     0.086364
      dyz     :     0.069921
      dx2y2   :     0.092470
      dxy     :     0.075726
      f0      :     0.005590  f :     0.042322
      f+1     :     0.007095
      f-1     :     0.003394
      f+2     :     0.004973
      f-2     :     0.007902
      f+3     :     0.007502
      f-3     :     0.005866

  5 C s       :     2.770063  s :     2.770063
      pz      :     1.007327  p :     2.952367
      px      :     0.988342
      py      :     0.956699
      dz2     :     0.102984  d :     0.379975
      dxz     :     0.077744
      dyz     :     0.065984
      dx2y2   :     0.049668
      dxy     :     0.083595
      f0      :     0.005182  f :     0.042376
      f+1     :     0.007595
      f-1     :     0.005916
      f+2     :     0.006648
      f-2     :     0.008392
      f+3     :     0.003850
      f-3     :     0.004793

  6 H s       :     0.791460  s :     0.791460
      pz      :     0.022253  p :     0.059318
      px      :     0.024791
      py      :     0.012275

  7 H s       :     0.792434  s :     0.792434
      pz      :     0.011839  p :     0.059429
      px      :     0.028161
      py      :     0.019429

  8 H s       :     0.788284  s :     0.788284
      pz      :     0.025604  p :     0.059633
      px      :     0.011283
      py      :     0.022746

  9 H s       :     0.789952  s :     0.789952
      pz      :     0.022996  p :     0.061078
      px      :     0.024961
      py      :     0.013121

 10 H s       :     0.792292  s :     0.792292
      pz      :     0.025164  p :     0.059325
      px      :     0.011403
      py      :     0.022757

 11 C s       :     2.780841  s :     2.780841
      pz      :     0.977712  p :     2.959974
      px      :     0.946493
      py      :     1.035769
      dz2     :     0.110317  d :     0.458682
      dxz     :     0.104704
      dyz     :     0.042606
      dx2y2   :     0.105154
      dxy     :     0.095902
      f0      :     0.006273  f :     0.052505
      f+1     :     0.009504
      f-1     :     0.004876
      f+2     :     0.006895
      f-2     :     0.011210
      f+3     :     0.007317
      f-3     :     0.006430

 12 N s       :     3.039981  s :     3.039981
      pz      :     1.181050  p :     3.821042
      px      :     1.170523
      py      :     1.469468
      dz2     :     0.043685  d :     0.153553
      dxz     :     0.032275
      dyz     :     0.022241
      dx2y2   :     0.018297
      dxy     :     0.037055
      f0      :     0.001192  f :     0.010402
      f+1     :     0.002057
      f-1     :     0.001214
      f+2     :     0.001343
      f-2     :     0.002361
      f+3     :     0.000788
      f-3     :     0.001446

 13 H s       :     0.686948  s :     0.686948
      pz      :     0.047921  p :     0.097812
      px      :     0.020227
      py      :     0.029664

 14 H s       :     0.683229  s :     0.683229
      pz      :     0.019090  p :     0.104490
      px      :     0.045119
      py      :     0.040281

 15 H s       :     0.794287  s :     0.794287
      pz      :     0.011136  p :     0.057191
      px      :     0.012535
      py      :     0.033520

 16 H s       :     0.785142  s :     0.785142
      pz      :     0.033028  p :     0.056356
      px      :     0.010651
      py      :     0.012677

 17 Cus       :     6.238748  s :     6.238748
      pz      :     4.006254  p :    12.110430
      px      :     4.064854
      py      :     4.039322
      dz2     :     2.002925  d :    10.047449
      dxz     :     2.008204
      dyz     :     2.006838
      dx2y2   :     2.026460
      dxy     :     2.003023
      f0      :     0.000004  f :     0.000067
      f+1     :     0.000010
      f-1     :     0.000006
      f+2     :     0.000003
      f-2     :     0.000006
      f+3     :     0.000014
      f-3     :     0.000024



                      *****************************
                      * MAYER POPULATION ANALYSIS *
                      *****************************

  NA   - Mulliken gross atomic population
  ZA   - Total nuclear charge
  QA   - Mulliken gross atomic charge
  VA   - Mayer's total valence
  BVA  - Mayer's bonded valence
  FA   - Mayer's free valence

  ATOM       NA         ZA         QA         VA         BVA        FA
  0 C      6.1236     6.0000    -0.1236     3.8710     3.8710     0.0000
  1 C      6.2279     6.0000    -0.2279     3.9360     3.9360     0.0000
  2 C      5.8657     6.0000     0.1343     3.6485     3.6485     0.0000
  3 C      6.2135     6.0000    -0.2135     3.8875     3.8875     0.0000
  4 C      6.1368     6.0000    -0.1368     3.9063     3.9063    -0.0000
  5 C      6.1465     6.0000    -0.1465     3.8892     3.8892     0.0000
  6 H      0.8585     1.0000     0.1415     0.9646     0.9646    -0.0000
  7 H      0.8589     1.0000     0.1411     0.9645     0.9645    -0.0000
  8 H      0.8641     1.0000     0.1359     0.9701     0.9701     0.0000
  9 H      0.8690     1.0000     0.1310     0.9869     0.9869    -0.0000
 10 H      0.8603     1.0000     0.1397     0.9665     0.9665    -0.0000
 11 C      6.0746     6.0000    -0.0746     3.7773     3.7773    -0.0000
 12 N      7.4714     7.0000    -0.4714     3.2116     3.2116    -0.0000
 13 H      0.7055     1.0000     0.2945     0.9096     0.9096    -0.0000
 14 H      0.7142     1.0000     0.2858     0.9067     0.9067     0.0000
 15 H      0.8575     1.0000     0.1425     0.9474     0.9474    -0.0000
 16 H      0.8507     1.0000     0.1493     0.9559     0.9559     0.0000
 17 Cu    28.3013    29.0000     0.6987     0.6026     0.6026    -0.0000

  Mayer bond orders larger than 0.100000
B(  0-C ,  1-C ) :   1.4195 B(  0-C ,  5-C ) :   1.3854 B(  0-C ,  6-H ) :   0.9735 
B(  1-C ,  2-C ) :   1.3505 B(  1-C ,  8-H ) :   0.9794 B(  2-C ,  3-C ) :   1.3414 
B(  2-C , 11-C ) :   0.9487 B(  3-C ,  4-C ) :   1.4169 B(  3-C ,  9-H ) :   0.9634 
B(  4-C ,  5-C ) :   1.4042 B(  4-C , 10-H ) :   0.9725 B(  5-C ,  7-H ) :   0.9693 
B( 11-C , 12-N ) :   0.8888 B( 11-C , 15-H ) :   0.9484 B( 11-C , 16-H ) :   0.9566 
B( 12-N , 13-H ) :   0.8882 B( 12-N , 14-H ) :   0.8692 B( 12-N , 17-Cu) :   0.5258 


-------
TIMINGS
-------

Total SCF time: 0 days 0 hours 0 min 18 sec 

Total time                  ....      18.995 sec
Sum of individual times     ....      17.472 sec  ( 92.0%)

SCF preparation             ....       1.121 sec  (  5.9%)
Fock matrix formation       ....      15.062 sec  ( 79.3%)
  Startup                   ....       0.041 sec  (  0.3% of F)
  Split-RI-J                ....       0.975 sec  (  6.5% of F)
  Chain of spheres X        ....       8.264 sec  ( 54.9% of F)
  XC integration            ....       4.483 sec  ( 29.8% of F)
    XC Preparation          ....       0.000 sec  (  0.0% of XC)
    Basis function eval.    ....       0.156 sec  (  3.5% of XC)
    Density eval.           ....       0.167 sec  (  3.7% of XC)
    XC-Functional eval.     ....       0.014 sec  (  0.3% of XC)
    XC-Potential eval.      ....       0.191 sec  (  4.3% of XC)
  CPCM terms                ....       2.079 sec  ( 13.8% of F)
Diagonalization             ....       0.000 sec  (  0.0%)
Density matrix formation    ....       0.198 sec  (  1.0%)
Total Energy calculation    ....       0.100 sec  (  0.5%)
Population analysis         ....       0.057 sec  (  0.3%)
Orbital Transformation      ....       0.090 sec  (  0.5%)
Orbital Orthonormalization  ....       0.000 sec  (  0.0%)
DIIS solution               ....       0.510 sec  (  2.7%)
SOSCF solution              ....       0.335 sec  (  1.8%)
Finished LeanSCF after  19.1 sec

Maximum memory used throughout the entire LEANSCF-calculation: 31.9 MB


           ************************************************************
           *        Program running with 32 parallel MPI-processes    *
           *              working on a common directory               *
           ************************************************************

------------------------------------------------------------------------------
                         ORCA PROPERTY INTEGRAL CALCULATIONS
------------------------------------------------------------------------------

GBWName                                   ... orca.gbw
Number of atoms                           ...     18
Number of basis functions                 ...    347
Max core memory                           ...   2000 MB

Dipole integrals                          ... YES
Quadrupole integrals                      ...  NO
Linear momentum integrals                 ...  NO
Angular momentum integrals                ...  NO
Higher moments length integrals           ...  NO
Higher moments velocity integrals         ...  NO
Kinetic energy integrals                  ...  NO
GIAO right hand sides                     ...  NO
GIAO dipole derivative integrals          ...  NO
SOC integrals                             ...  NO
EPR diamagnetic integrals (GIAO)          ...  NO
EPR gauge integrals                       ...  NO
Field gradient integrals                  ...  NO (   0 nuclei)
Spin-dipole/Fermi contact integrals       ...  NO (   0 nuclei)
Contact density integrals                 ...  NO (   0 nuclei)
Nucleus-orbit integrals                   ...  NO (   0 nuclei)
Geometric perturbations                   ...  NO (  18 nuclei)

Choice of electric origin   ... Center of mass
Position of electric origin ... (  1.2115,  3.3082,  5.1014) 
Choice of magnetic origin   ... GIAO
Position of magnetic origin ... (  0.0000,  0.0000,  0.0000) 

Calculating integrals                     ... Electric Dipole (Length)     done (  0.0 sec)

Property integrals calculated in   0.0 sec

Maximum memory used throughout the entire PROPINT-calculation: 20.3 MB


-------------------------------------------------------------------------------
                          DFT DISPERSION CORRECTION                            
                                                                               
                              DFTD3 V3.1  Rev 1                                
                          USING Becke-Johnson damping                          
-------------------------------------------------------------------------------
The B3LYP functional is recognized
Active option DFTDOPT                   ...         4   

molecular C6(AA) [au] = 4498.205427 


            DFT-D V3
 parameters
 s6 scaling factor         :     1.0000 
 a1 scaling factor         :     0.3981 
 s8 scaling factor         :     1.9889 
 a2 scaling factor         :     4.4211 
 ad hoc parameters k1-k3   :    16.0000     1.3333    -4.0000 

 Edisp/kcal,au: -21.018702329284  -0.033495430676 
 E6   /kcal   :  -9.613793348 
 E8   /kcal   : -11.404908981 
 % E8         :  54.260766446 

-------------------------   ----------------
Dispersion correction           -0.033495431
-------------------------   ----------------


-------------------------   --------------------
FINAL SINGLE POINT ENERGY     -1967.169378567651
-------------------------   --------------------



           ************************************************************
           *        Program running with 32 parallel MPI-processes    *
           *              working on a common directory               *
           ************************************************************
------------------------------------------------------------------------------
                         ORCA SCF GRADIENT CALCULATION
------------------------------------------------------------------------------

Nuc. rep. gradient        (SHARK) ... done (  0.0 sec)
HCore & Overlap gradient  (SHARK) ... done (  0.0 sec)
Split-RIJ-J gradient      (SHARK) ... done (  0.3 sec)
done (  3.4 sec)
XC gradient                       ... done (  0.5 sec)
CPCM gradient                     ... done (  0.5 sec)
Dispersion correction             ... done (  0.0 sec)

-------------------
DISPERSION GRADIENT
-------------------

   1   C   :   -0.000355010   -0.000034625   -0.000198832
   2   C   :   -0.000314959    0.000063153   -0.000283777
   3   C   :   -0.000287937    0.000087877   -0.000159363
   4   C   :   -0.000449414   -0.000325460    0.000238507
   5   C   :   -0.000238670   -0.000305617    0.000233237
   6   C   :   -0.000285149   -0.000177583    0.000024040
   7   H   :   -0.000220515    0.000025647   -0.000185046
   8   H   :   -0.000235857   -0.000153997    0.000023882
   9   H   :   -0.000106650    0.000159021   -0.000268448
  10   H   :   -0.000063518   -0.000187544    0.000299625
  11   H   :   -0.000051663   -0.000198527    0.000211546
  12   C   :    0.000179555    0.000398903   -0.000189632
  13   N   :    0.000587788    0.000079844    0.000124404
  14   H   :    0.000168466    0.000191852    0.000207321
  15   H   :    0.000265263    0.000012714    0.000057347
  16   H   :    0.000062213    0.000326820   -0.000073561
  17   H   :    0.000094154    0.000177586   -0.000293031
  18   Cu  :    0.001251902   -0.000140065    0.000231782

Difference to translation invariance:
           :   -0.0000000000    0.0000000000    0.0000000000

Difference to rotation invariance:
           :   -0.0000000000   -0.0000000000    0.0000000000

Norm of the Dispersion gradient    ...    0.0020729399
RMS gradient                       ...    0.0002820914
MAX gradient                       ...    0.0012519018

------------------
CARTESIAN GRADIENT
------------------

   1   C   :   -0.007135806   -0.001368916   -0.003646366
   2   C   :    0.003779525    0.007357203   -0.006956927
   3   C   :    0.005838031    0.006726895   -0.005528631
   4   C   :    0.005169088   -0.004668267    0.008929758
   5   C   :    0.000765469   -0.005047824    0.006813181
   6   C   :   -0.003809115   -0.001082247   -0.001216616
   7   H   :   -0.000204463   -0.000283463    0.000290196
   8   H   :    0.000095906    0.000073649   -0.000025664
   9   H   :   -0.001542336   -0.000716494   -0.000060678
  10   H   :   -0.001471314   -0.001700253    0.001357671
  11   H   :   -0.000498944   -0.000137585   -0.000231196
  12   C   :    0.019339655   -0.007588331    0.020135278
  13   N   :   -0.034802555   -0.010794878   -0.009686494
  14   H   :   -0.011060439    0.008352758    0.019759614
  15   H   :    0.021640627   -0.006336600   -0.007082541
  16   H   :   -0.000881940    0.009711082   -0.004532659
  17   H   :   -0.010593953    0.004497957   -0.018898238
  18   Cu  :    0.015372563    0.003005313    0.000580311

Difference to translation invariance:
[...]
     34      -0.000401  -0.000326  -0.000131  -0.000216   0.000620   0.001153
     35      -0.001301  -0.000514  -0.000419  -0.000095   0.001972  -0.001496
     36       0.000070   0.000095   0.000015   0.000055   0.049195   0.025456
     37       0.000020   0.000032   0.000013   0.000021   0.002277   0.050817
     38      -0.000004  -0.000021  -0.000018  -0.000031   0.030380  -0.057260
     39       0.000437   0.000169   0.000131   0.000133  -0.255069   0.214231
     40      -0.000064   0.000031  -0.000111  -0.000081   0.323224  -0.228264
     41       0.000078  -0.000220   0.000149   0.000210  -0.673770   0.518027
     42       0.000164   0.000155   0.000094   0.000242  -0.422156  -0.564434
     43      -0.000063  -0.000203  -0.000084  -0.000021  -0.369498  -0.479794
     44       0.000118   0.000282  -0.000031   0.000088   0.241219   0.279200
     45       0.002412   0.001533   0.000442   0.000800  -0.002899   0.000717
     46       0.008374   0.004373   0.001927   0.001729  -0.001832   0.002908
     47       0.013297   0.006521   0.003169   0.002591  -0.008701   0.006137
     48       0.000564   0.000534   0.000395   0.000275  -0.003576   0.002266
     49      -0.000813   0.001084   0.000395   0.001618   0.007323  -0.013254
     50       0.002113  -0.000282   0.000173  -0.001416  -0.007779   0.012956
     51      -0.000014  -0.000002  -0.000000  -0.000016   0.000038   0.000001
     52       0.000005  -0.000002   0.000005   0.000003   0.000017  -0.000006
     53       0.000001   0.000011  -0.000004   0.000008   0.000039  -0.000059


-----------
IR SPECTRUM
-----------

 Mode   freq       eps      Int      T**2         TX        TY        TZ
       cm**-1   L/(mol*cm) km/mol    a.u.
----------------------------------------------------------------------------
  6:     43.92   0.000760    3.84  0.005398  (-0.066553  0.008821  0.029842)
  7:     72.56   0.000699    3.53  0.003005  ( 0.052606 -0.005390 -0.014439)
  8:    104.11   0.000571    2.89  0.001712  (-0.013001 -0.031038  0.024083)
  9:    151.84   0.002997   15.15  0.006160  ( 0.061884 -0.038612 -0.028978)
 10:    299.16   0.000430    2.17  0.000448  ( 0.020745  0.003585 -0.002283)
 11:    349.15   0.000315    1.59  0.000282  (-0.002579  0.010339 -0.012966)
 12:    412.81   0.000629    3.18  0.000475  ( 0.018791 -0.010580  0.003190)
 13:    424.08   0.000298    1.51  0.000219  ( 0.012617 -0.001766  0.007562)
 14:    509.98   0.002267   11.46  0.001387  ( 0.031887 -0.016689 -0.009591)
 15:    539.69   0.007679   38.81  0.004440  ( 0.020786  0.033181 -0.053920)
 16:    630.88   0.007651   38.66  0.003784  ( 0.015091  0.050723 -0.031365)
 17:    635.93   0.000051    0.26  0.000025  ( 0.001908 -0.001920  0.004227)
 18:    727.06   0.017038   86.10  0.007313  ( 0.057966 -0.062787 -0.003296)
 19:    775.81   0.008701   43.97  0.003500  ( 0.049253 -0.030799 -0.011205)
 20:    818.79   0.004272   21.59  0.001628  (-0.036847  0.007099  0.014837)
 21:    862.33   0.000415    2.10  0.000150  ( 0.005547  0.002508 -0.010642)
 22:    926.56   0.007927   40.06  0.002670  (-0.037823  0.030992  0.016692)
 23:    937.78   0.002523   12.75  0.000840  (-0.025298  0.005765  0.012898)
 24:    978.48   0.003417   17.27  0.001090  ( 0.030735 -0.008193 -0.008829)
 25:    988.87   0.000203    1.03  0.000064  (-0.005796  0.000495  0.005511)
 26:   1016.19   0.000184    0.93  0.000057  ( 0.004774 -0.005011 -0.002951)
 27:   1021.91   0.000408    2.06  0.000125  ( 0.008751 -0.002283 -0.006544)
 28:   1048.46   0.001105    5.58  0.000329  (-0.010637 -0.014513 -0.002263)
 29:   1073.53   0.016609   83.94  0.004828  ( 0.021658 -0.046672 -0.046698)
 30:   1105.71   0.003485   17.61  0.000984  ( 0.010306 -0.029450 -0.003178)
 31:   1158.78   0.001220    6.16  0.000328  (-0.002633  0.007631  0.016228)
 32:   1179.80   0.000006    0.03  0.000001  ( 0.000084 -0.000801 -0.000922)
 33:   1194.63   0.000051    0.26  0.000013  ( 0.001275  0.003349 -0.000703)
 34:   1232.29   0.002894   14.63  0.000733  ( 0.016833  0.020316  0.006076)
 35:   1308.73   0.000489    2.47  0.000117  ( 0.007260  0.004912  0.006307)
 36:   1343.95   0.000153    0.77  0.000036  (-0.003790  0.004213 -0.001849)
 37:   1363.20   0.000006    0.03  0.000001  ( 0.000872 -0.000659 -0.000382)
 38:   1396.32   0.003561   18.00  0.000796  (-0.025832 -0.011342  0.000034)
 39:   1484.17   0.001712    8.65  0.000360  (-0.003715  0.003194 -0.018330)
 40:   1495.71   0.000868    4.39  0.000181  ( 0.001365  0.013278 -0.001736)
 41:   1526.32   0.001988   10.05  0.000407  ( 0.011491  0.015782  0.005042)
 42:   1618.47   0.000997    5.04  0.000192  ( 0.009725  0.002903 -0.009444)
 43:   1622.71   0.009046   45.71  0.001740  ( 0.035306 -0.001639  0.022145)
 44:   1636.95   0.001718    8.68  0.000328  ( 0.017944  0.001783 -0.001551)
 45:   3066.21   0.005829   29.46  0.000593  ( 0.000125 -0.023097 -0.007729)
 46:   3117.00   0.001947    9.84  0.000195  ( 0.000051  0.002368 -0.013760)
 47:   3131.23   0.001187    6.00  0.000118  ( 0.007936  0.004590 -0.005849)
 48:   3171.61   0.000714    3.61  0.000070  (-0.004275 -0.005111 -0.005082)
 49:   3180.93   0.000422    2.13  0.000041  (-0.003978 -0.004730 -0.001800)
 50:   3188.96   0.002886   14.59  0.000282  (-0.001655 -0.000725 -0.016708)
 51:   3199.25   0.001929    9.75  0.000188  ( 0.010522  0.008674 -0.001481)
 52:   3467.49   0.005545   28.02  0.000499  (-0.019807 -0.001555 -0.010211)
 53:   3531.40   0.010687   54.01  0.000944  (-0.008052 -0.018163  0.023445)

* The epsilon (eps) is given for a Dirac delta lineshape.
** The dipole moment derivative (T) already includes vibrational overlap.

The first frequency considered to be a vibration is 6
The total number of vibrations considered is 48


--------------------------
THERMOCHEMISTRY AT 298.15K
--------------------------

Temperature         ...   298.15 K
Pressure            ...     1.00 atm
Total Mass          ...   170.71 AMU
Quasi RRHO          ...     True
Cut-Off Frequency   ...     1.00 cm^-1

Throughout the following assumptions are being made:
  (1) The electronic state is orbitally nondegenerate
  (2) There are no thermally accessible electronically excited states
  (3) Hindered rotations indicated by low frequency modes are not
      treated as such but are treated as vibrations and this may
      cause some error
  (4) All equations used are the standard statistical mechanics
      equations for an ideal gas
  (5) All vibrations are strictly harmonic

freq.      43.92  E(vib)   ...       0.53 
freq.      72.56  E(vib)   ...       0.49 
freq.     104.11  E(vib)   ...       0.46 
freq.     151.84  E(vib)   ...       0.40 
freq.     299.16  E(vib)   ...       0.26 
freq.     349.15  E(vib)   ...       0.23 
freq.     412.81  E(vib)   ...       0.19 
freq.     424.08  E(vib)   ...       0.18 
freq.     509.98  E(vib)   ...       0.14 
freq.     539.69  E(vib)   ...       0.12 
freq.     630.88  E(vib)   ...       0.09 
freq.     635.93  E(vib)   ...       0.09 
freq.     727.06  E(vib)   ...       0.06 
freq.     775.81  E(vib)   ...       0.05 
freq.     818.79  E(vib)   ...       0.05 
freq.     862.33  E(vib)   ...       0.04 
freq.     926.56  E(vib)   ...       0.03 
freq.     937.78  E(vib)   ...       0.03 
freq.     978.48  E(vib)   ...       0.03 
freq.     988.87  E(vib)   ...       0.02 
freq.    1016.19  E(vib)   ...       0.02 
freq.    1021.91  E(vib)   ...       0.02 
freq.    1048.46  E(vib)   ...       0.02 
freq.    1073.53  E(vib)   ...       0.02 
freq.    1105.71  E(vib)   ...       0.02 
freq.    1158.78  E(vib)   ...       0.01 
freq.    1179.80  E(vib)   ...       0.01 
freq.    1194.63  E(vib)   ...       0.01 
freq.    1232.29  E(vib)   ...       0.01 
freq.    1308.73  E(vib)   ...       0.01 
freq.    1343.95  E(vib)   ...       0.01 
freq.    1363.20  E(vib)   ...       0.01 
freq.    1396.32  E(vib)   ...       0.00 
freq.    1484.17  E(vib)   ...       0.00 
freq.    1495.71  E(vib)   ...       0.00 
freq.    1526.32  E(vib)   ...       0.00 
freq.    1618.47  E(vib)   ...       0.00 
freq.    1622.71  E(vib)   ...       0.00 
freq.    1636.95  E(vib)   ...       0.00 
freq.    3066.21  E(vib)   ...       0.00 
freq.    3117.00  E(vib)   ...       0.00 
freq.    3131.23  E(vib)   ...       0.00 
freq.    3171.61  E(vib)   ...       0.00 
freq.    3180.93  E(vib)   ...       0.00 
freq.    3188.96  E(vib)   ...       0.00 
freq.    3199.25  E(vib)   ...       0.00 
freq.    3467.49  E(vib)   ...       0.00 
freq.    3531.40  E(vib)   ...       0.00 

------------
INNER ENERGY
------------

The inner energy is: U= E(el) + E(ZPE) + E(vib) + E(rot) + E(trans)
    E(el)   - is the total energy from the electronic structure calculation
              = E(kin-el) + E(nuc-el) + E(el-el) + E(nuc-nuc)
    E(ZPE)  - the the zero temperature vibrational energy from the frequency calculation
    E(vib)  - the the finite temperature correction to E(ZPE) due to population
              of excited vibrational states
    E(rot)  - is the rotational thermal energy
    E(trans)- is the translational thermal energy

Summary of contributions to the inner energy U:
Electronic energy                ...  -1967.19634213 Eh
Zero point energy                ...      0.14824428 Eh      93.02 kcal/mol
Thermal vibrational correction   ...      0.00584665 Eh       3.67 kcal/mol
Thermal rotational correction    ...      0.00141627 Eh       0.89 kcal/mol
Thermal translational correction ...      0.00141627 Eh       0.89 kcal/mol
-----------------------------------------------------------------------
Total thermal energy                  -1967.03941866 Eh


Summary of corrections to the electronic energy:
(perhaps to be used in another calculation)
Total thermal correction                  0.00867919 Eh       5.45 kcal/mol
Non-thermal (ZPE) correction              0.14824428 Eh      93.02 kcal/mol
-----------------------------------------------------------------------
Total correction                          0.15692348 Eh      98.47 kcal/mol


--------
ENTHALPY
--------

The enthalpy is H = U + kB*T
                kB is Boltzmann's constant
Total thermal energy              ...  -1967.03941866 Eh 
Thermal Enthalpy correction       ...      0.00094421 Eh       0.59 kcal/mol
-----------------------------------------------------------------------
Total Enthalpy                    ...  -1967.03847445 Eh


Note: Only C1 symmetry has been detected, increase convergence thresholds 
      if your molecule has a higher symmetry. Symmetry factor of 1.0 is   
      used for the rotational entropy correction. 
 

Note: Rotational entropy computed according to Herzberg 
Infrared and Raman Spectra, Chapter V,1, Van Nostrand Reinhold, 1945 
Point Group:  C1, Symmetry Number:   1  
Rotational constants in cm-1:     0.070407     0.032275     0.026129 

Vibrational entropy computed according to the QRRHO of S. Grimme
Chem.Eur.J. 2012 18 9955 using a reference frequency of 100.0 cm-1


-------
ENTROPY
-------

The entropy contributions are T*S = T*(S(el)+S(vib)+S(rot)+S(trans))
     S(el)   - electronic entropy
     S(vib)  - vibrational entropy
     S(rot)  - rotational entropy
     S(trans)- translational entropy
The entropies will be listed as multiplied by the temperature to get
units of energy

Electronic entropy                ...      0.00000000 Eh      0.00 kcal/mol
Vibrational entropy               ...      0.01008217 Eh      6.33 kcal/mol
Rotational entropy                ...      0.01410501 Eh      8.85 kcal/mol
Translational entropy             ...      0.01962863 Eh     12.32 kcal/mol
-----------------------------------------------------------------------
Final entropy term                ...      0.04381581 Eh     27.49 kcal/mol

In case the symmetry of your molecule has not been determined correctly
or in case you have a reason to use a different symmetry number we print 
out the resulting rotational entropy values for sn=1,12:

 non-linear molecules -----------------------------------
|  sn= 1 | S(rot)=       0.01410501 Eh      8.85 kcal/mol|
|  sn= 2 | S(rot)=       0.01345056 Eh      8.44 kcal/mol|
|  sn= 3 | S(rot)=       0.01306773 Eh      8.20 kcal/mol|
|  sn= 4 | S(rot)=       0.01279610 Eh      8.03 kcal/mol|
|  sn= 5 | S(rot)=       0.01258541 Eh      7.90 kcal/mol|
|  sn= 6 | S(rot)=       0.01241327 Eh      7.79 kcal/mol|
|  sn= 7 | S(rot)=       0.01226772 Eh      7.70 kcal/mol|
|  sn= 8 | S(rot)=       0.01214164 Eh      7.62 kcal/mol|
|  sn= 9 | S(rot)=       0.01203044 Eh      7.55 kcal/mol|
|  sn=10 | S(rot)=       0.01193096 Eh      7.49 kcal/mol|
|  sn=11 | S(rot)=       0.01184097 Eh      7.43 kcal/mol|
|  sn=12 | S(rot)=       0.01175881 Eh      7.38 kcal/mol|
 linear molecules ---------------------------------------
|  Dinfh | S(rot)=       0.00876707 Eh      5.50 kcal/mol|
|  Cinfv | S(rot)=       0.00942153 Eh      5.91 kcal/mol|
 --------------------------------------------------------


-------------------
GIBBS FREE ENERGY
-------------------

The Gibbs free energy is G = H - T*S

Total enthalpy                    ...  -1967.03847445 Eh 
Total entropy correction          ...     -0.04381581 Eh    -27.49 kcal/mol
-----------------------------------------------------------------------
Final Gibbs free energy         ...  -1967.08229026 Eh

For completeness - the Gibbs free energy minus the electronic energy
G-E(el)                           ...      0.11405187 Eh     71.57 kcal/mol


Maximum memory used throughout the entire PROP-calculation: 111.8 MB

--------------------------------
SUGGESTED CITATIONS FOR THIS RUN
--------------------------------

Below you find a list of papers that are relevant to this ORCA run
We neither can nor want to force you to cite these papers, but we appreciate if you do
You receive ORCA, which is the product of decades of hard work by many enthusiastic individuals, for free
The only thing we kindly ask in return is that you cite our papers,
We deeply appreciate it, if you show your appreciation for ORCA by not just citing the generic ORCA reference.

Please note that relegating all ORCA citations to the supporting information does *not* help us.
SI sections are not indexed - citations you put there will not count into any citation statistics
But we need these citations in order to attract the funding resources that allow us to do what we are doing

Therefore, if you are a happy ORCA user, please consider citing a few of the papers listed below in the main body of your paper

In addition to the list printed below, the program has created the file orca.bibtex that contains the list in bibtex format
You can import this file easily into all common literature databanks and citation aid programs


List of essential papers. We consider these as the minimum necessary citations

  1. Neese, F.
     Software update: the ORCA program system, version 6.0
     WIRES Comput. Molec. Sci. 2025 15(1), e70019
     doi.org/10.1002/wcms.7019

List of papers to cite with high priority. The work reported in these papers was absolutely
necessary for this run to complete.
Our perspective: the developers of density functionals and basis sets usually get cited in chemistry papers
Good! But without the algorithms to do something with them, the functionals or basis sets would not do anything.
Hence, in our opinion, the algorithm design and method developments papers are equally worthy of getting cited

  1. Neese, F.
     An improvement of the resolution of the identity approximation for the formation of the Coulomb matrix
     J. Comp. Chem. 2003 24(14), 1740-1747
     doi.org/10.1002/jcc.10318
  2. Neese, F.; Wennmohs, F.; Hansen, A.; Becker, U.
     Efficient, approximate and parallel Hartree-Fock and hybrid DFT calculations. A 'chain-of-spheres' algorithm for the Hartree-Fock exchange
     Chem. Phys. 2009 356(1-3), 98-109
     doi.org/10.1016/j.chemphys.2008.10.036
  3. Grimme, S.; Antony, J.; Ehrlich, S.; Krieg, H.
     A consistent and accurate ab initio parametrization of density functional dispersion correction (DFT-D) for the 94 elements H-Pu
     J. Chem. Phys. 2010 132 , 154104
     doi.org/10.1063/1.3382344
  4. Grimme, S.; Ehrlich, S.; Goerigk, L.
     Effect of the damping function in dispersion corrected density functional theory
     J. Comput. Chem. 2011 32(7), 1456-1465
     doi.org/10.1002/jcc.21759
  5. Bykov, D.; Petrenko, T.; Izsak, R.; Kossmann, S.; Becker, U.; Valeev, E.; Neese, F.
     Efficient implementation of the analytic second derivatives of Hartree-Fock and hybrid DFT energies: a detailed analysis of different approximations
     Molec. Phys. 2015 113 , 1961-1977
     doi.org/10.1080/00268976.2015.1025114
  6. Garcia-Rates, M.; Neese, F.
     Efficient implementation of the analytical second derivatives of hartree-fock and hybrid DFT energies within the framework of the conductor-like polarizable continuum model
     J. Comput. Chem. 2019 40 , 1816-1828
     doi.org/10.1002/jcc.25833
  7. Garcia-Rates, M.; Neese, F.
     Effect of the Solute Cavity on the Solvation Energy and its Derivatives within the Framework of the Gaussian Charge Scheme
     J. Comput. Chem. 2020 41 , 922-939
     doi.org/10.1002/jcc.26139
  8. Helmich-Paris, B.; de Souza, B.; Neese, F.; Izsák, R.
     An improved chain of spheres for exchange algorithm
     J. Chem. Phys. 2021 155(10), 104109
     doi.org/10.1063/5.0058766
  9. Neese, F.
     The SHARK Integral Generation and Digestion System
     J. Comp. Chem. 2022 44(3), 381
     doi.org/10.1002/jcc.26942

List of suggested additional citations. These are papers that are important in the 'surrounding' of 
of this run, or papers that preceded the highly important papers. If you like your results we are grateful for a citation.

  1. Izsak, R.; Neese, F.
     An overlap fitted chain of spheres exchange method
     J. Chem. Phys. 2011 135 , 144105
     doi.org/10.1063/1.3646921
  2. Izsak, R.; Hansen, A.; Neese, F.
     The resolution of identity and chain of spheres approximations for the LPNO-CCSD singles Fock term
     Molec. Phys. 2012 110 , 2413-2417
     doi.org/10.1080/00268976.2012.687466
  3. Neese, F.
     The ORCA program system
     WIRES Comput. Molec. Sci. 2012 2(1), 73-78
     doi.org/10.1002/wcms.81
  4. Izsak, R.; Neese, F.; Klopper, W.
     Robust fitting techniques in the chain of spheres approximation to the Fock exchange: The role of the complementary space
     J. Chem. Phys. 2013 139 , 
     doi.org/10.1063/1.4819264
  5. Neese, F.
     Software update: the ORCA program system, version 4.0
     WIRES Comput. Molec. Sci. 2018 8(1), 1-6
     doi.org/10.1002/wcms.1327
  6. Neese, F.; Wennmohs, F.; Becker, U.; Riplinger, C.
     The ORCA quantum chemistry program package
     J. Chem. Phys. 2020 152(22), 224108
     doi.org/10.1063/5.0004608
  7. Neese, F.
     Software update: The ORCA program system—Version 5.0
     WIRES Comput. Molec. Sci. 2022 12(1), e1606
     doi.org/10.1002/wcms.1606

List of optional additional citations

  1. Neese, F.
     Approximate second-order SCF convergence for spin unrestricted wavefunctions
     Chem. Phys. Lett. 2000 325(1-3), 93-98
     doi.org/10.1016/s0009-2614(00)00662-x

Timings for individual modules:

Sum of individual times          ...     1157.823 sec (=  19.297 min)
Startup calculation              ...      112.734 sec (=   1.879 min)   9.7 %
SCF iterations                   ...      627.775 sec (=  10.463 min)  54.2 %
Property integrals               ...       81.526 sec (=   1.359 min)   7.0 %
SCF Response                     ...       65.597 sec (=   1.093 min)   5.7 %
Property calculations            ...       68.635 sec (=   1.144 min)   5.9 %
SCF Gradient evaluation          ...      201.269 sec (=   3.354 min)  17.4 %
Geometry relaxation              ...        0.287 sec (=   0.005 min)   0.0 %
                             ****ORCA TERMINATED NORMALLY****
TOTAL RUN TIME: 0 days 0 hours 20 minutes 36 seconds 815 msec
