
                                 *****************
                                 * O   R   C   A *
                                 *****************

                                            #,                                       
                                            ###                                      
                                            ####                                     
                                            #####                                    
                                            ######                                   
                                           ########,                                 
                                     ,,################,,,,,                         
                               ,,#################################,,                 
                          ,,##########################################,,             
                       ,#########################################, ''#####,          
                    ,#############################################,,   '####,        
                  ,##################################################,,,,####,       
                ,###########''''           ''''###############################       
              ,#####''   ,,,,##########,,,,          '''####'''          '####       
            ,##' ,,,,###########################,,,                        '##       
           ' ,,###''''                  '''############,,,                           
         ,,##''                                '''############,,,,        ,,,,,,###''
      ,#''                                            '''#######################'''  
     '                                                          ''''####''''         
             ,#######,   #######,   ,#######,      ##                                
            ,#'     '#,  ##    ##  ,#'     '#,    #''#        ,####,    ,#,          
            ##       ##  ##   ,#'  ##            #'  '#       #'       ,# #          
            ##       ##  #######   ##           ,######,      #####,      #          
            '#,     ,#'  ##    ##  '#,     ,#' ,#      #,     #,   #      #          
             '#######'   ##     ##  '#######'  #'      '#     '####' #    #          



                #########################################################
                #                        -***-                          #
                #          Department of theory and spectroscopy        #
                #                                                       #
                #                      Frank Neese                      #
                #                                                       #
                #     Directorship, Architecture, Infrastructure        #
                #                    SHARK, DRIVERS                     #
                #        Core code/Algorithms in most modules           #
                #                                                       #
                #        Max Planck Institute fuer Kohlenforschung      #
                #                Kaiser Wilhelm Platz 1                 #
                #                 D-45470 Muelheim/Ruhr                 #
                #                      Germany                          #
                #                                                       #
                #                  All rights reserved                  #
                #                        -***-                          #
                #########################################################


                         Program Version 6.1.0-f.0  -   RELEASE   -


 With contributions from (in alphabetic order):
[Max-Planck-Institut fuer Kohlenforschung]                               
  Daniel Aravena         : Magnetic Suceptibility                        
  Michael Atanasov       : Ab Initio Ligand Field Theory (pilot matlab implementation)
  Alexander A. Auer      : GIAO ZORA, VPT2 properties, NMR spectrum      
  Ute Becker             : All parallelization in ORCA, NUMFREQ, NUMCALC 
  Giovanni Bistoni       : ED, misc. LED, open-shell LED, HFLD           
  Dmytro Bykov           : pre 5.0 version of the SCF Hessian            
  Marcos Casanova-Páez   : Triplet and SCS-CIS(D). UHF-(DLPNO)-IP/EA/STEOM-CCSD. UHF-CVS-IP/STEOM-CCSD   
  Vijay G. Chilkuri      : MRCI spin determinant printing, contributions to CSF-ICE 
  Pauline Colinet        : FMM embedding                                 
  Dipayan Datta          : RHF DLPNO-CCSD density                        
  Achintya Kumar Dutta   : EOM-CC, STEOM-CC                              
  Nicolas Foglia         : Exact transition moments, OPA infrastructure, MCD improvements    
  Dmitry Ganyushin       : Spin-Orbit,Spin-Spin,Magnetic field MRCI      
  Miquel Garcia-Rates    : C-PCM and meta-GGA Hessian, CCSD/C-PCM, Gaussian charge scheme 
  Tiago L. C. Gouveia    : GS-ROHF, GS-ROCIS                             
  Yang Guo               : DLPNO-NEVPT2, F12-NEVPT2, CIM, IAO-localization        
  Andreas Hansen         : Spin unrestricted coupled pair/coupled cluster methods 
  Ingolf Harden          : AUTO-CI MPn and infrastructure                
  Benjamin Helmich-Paris : MC-RPA, TRAH-(SCF,CASSCF), AVAS, COSX integrals, SCF dyn. polar., MC-PDFT, srDFT 
  Lee Huntington         : MR-EOM, pCC                                   
  Robert Izsak           : Overlap fitted RIJCOSX, COSX-SCS-MP3, EOM     
  Riya Kayal             : Wick's Theorem for AUTO-CI, AUTO-CI UHF-CCSDT 
  Emily Kempfer          : AUTO-CI RHF CISDT and CCSDT, approximate NEVPT4
  Christian Kollmar      : KDIIS, OOCD, Brueckner-CCSD(T), CCSD density, CASPT2, CASPT2-K, improved NEVPT2 
  Axel Koslowski         : Symmetry handling                             
  Simone Kossmann        : meta-GGA functionals, TD-DFT gradient, OOMP2, (MP2 Hessian; deprecated post 5.0) 
  Lucas Lang             : DCDCAS, Hyperfine gauge corrections, ICE-SOC+SSC
  Marvin Lechner         : AUTO-CI (C++ implementation), FIC-MRCC        
  Spencer Leger          : CASSCF response                               
  Dagmar Lenk            : GEPOL surface, SMD, ORCA-2-JSON               
  Dimitrios Liakos       : Extrapolation schemes; Compound Job, Property file
  Dimitrios Manganas     : Further ROCIS development; embedding schemes. LFT, Crystal Embedding 
  Dimitrios Pantazis     : SARC Basis sets                               
  Anastasios Papadopoulos: AUTO-CI, single reference methods and gradients 
  Taras Petrenko         : pre 6.0 DFT Hessian and TD-DFT gradient,  ECA, NRVS 
  Petra Pikulova         : Analytic Raman intensities                    
  Peter Pinski           : DLPNO-MP2, DLPNO-MP2 Gradient                 
  Shashank Vittal Rao    : ES-AILFT, MagRelax                            
  Christoph Reimann      : Effective Core Potentials                     
  Marius Retegan         : Local ZFS, SOC                                
  Christoph Riplinger    : Optimizer, TS searches, QM/MM, DLPNO-CCSD(T), (RO)-DLPNO pert. Triples 
  Michael Roemelt        : Original ROCIS implementation, recursive CI coupling coefficients
  Masaaki Saitow         : Open-shell DLPNO-CCSD energy and density      
  Barbara Sandhoefer     : DKH picture change effects                    
  Yorick L. A. Schmerwitz: GMF and freeze-and-release deltaSCF, NEB S-IDPP initial path                    
  Kantharuban Sivalingam : CASSCF convergence/infrastructure, NEVPT2, NEVPT3, NEVPT4(SD), FIC-MRCI and CEPA variants
  Bernardo de Souza      : ESD, SOC TD-DFT                               
  Georgi L. Stoychev     : AutoAux, RI-MP2 NMR, DLPNO-MP2 response, X2C  
  Van Anh Tran           : RI-MP2 g-tensors                              
  Willem Van den Heuvel  : Paramagnetic NMR                              
  Zikuan Wang            : NOTCH, Electric field optimization            
  Frank Wennmohs         : Technical directorship and infrastructure     
  Hang Xu                : AUTO-CI-Response properties                   
                                                                         
[FACCTs GmbH]                                                            
  Markus Bursch, Nicolas Foglia, Miquel Garcia-Rates, Ingolf Harden, Hagen Neugebauer, Anastasios Papadopoulos, 
  Christoph Riplinger, Bernardo de Souza, Georgi L. Stoychev                                                    
                                                                 
  APM, various basis sets, CI-OPT, improved COSX, DLPNO-Multilevel,           
  DOCKER, DRACO, updates on ESD, Fragmentator, GOAT, IRC, LR-CPCM, L-BFGS, MBIS, meta-GGA TD-DFT gradient, ML-optimized integration grids, 
  MM, NACMEs, nearIR, NEB, NEB-TS, NL-DFT gradient (VV10), 2- and 3-layer-ONIOM, interface openCOSMO-RS, QMMM,   
  Crystal-QMMM, RESP, rigid body optimization, SF, symmetry and pop. for TD-DFT, various functionals, SOLVATOR                                   
                                                                         
[Other institutions]                                                     
  V. Asgeirsson          : NEB                                           
  Christoph Bannwarth    : sTDA-DFT, sTD-DFT, PBEh-3c, B97-3c, D3        
  Giovanni Bistoni       : ETS/NOCV, ADLD/ADEX, COVALED                  
  Martin Brehm           : Molecular dynamics                            
  Ronald Cardenas        : ETS/NOCV                                      
  Martina Colucci        : COVALED                                       
  Sebastian Ehlert       : rSCAN, r2SCAN, r2SCAN-3c, D4, dhf basis sets  
  Marvin Friede          : D4 for Fr, Ra, Ac-Lr                          
  Lars Goerigk           : TD-DFT with DH, B97 family of functionals     
  Stefan Grimme          : VdW corrections, initial TS optimization, DFT functionals, gCP, sTDA/sTD-DF 
  Waldemar Hujo          : DFT-NL                                        
  H. Jonsson             : NEB                                           
  Holger Kruse           : gCP                                           
  Marcel Mueller         : wB97X-3c, vDZP basis set                      
  Hagen Neugebauer       : wr2SCAN, Native XTB                           
  Gianluca Regni         : ADLD/ADEX                                     
  Tobias Risthaus        : pre 6.0 range-separated hybrid DFT and stability analysis
  Lukas Wittmann         : regularized MP2, r2SCAN double-hybrids, wr2SCAN        
                                                                         
We gratefully acknowledge several colleagues who have allowed us to      
interface, adapt or use parts of their codes:                            
  Ed Valeev, F. Pavosevic, A. Kumar             : LibInt (2-el integral package), F12 methods 
  Garnet Chan, S. Sharma, J. Yang, R. Olivares  : DMRG                   
  Ulf Ekstrom                                   : XCFun DFT Library      
  Mihaly Kallay                                 : mrcc  (arbitrary order and MRCC methods)
  Frank Weinhold                                : gennbo (NPA and NBO analysis)           
  Simon Mueller                                 : openCOSMO-RS                            
  Christopher J. Cramer and Donald G. Truhlar   : smd solvation model                     
  S Lehtola, MJT Oliveira, MAL Marques          : LibXC Library                           
  Liviu Ungur et al                             : ANISO software                          


 Your calculation uses the libint2 library for the computation of 2-el integrals
 For citations please refer to: http://libint.valeyev.net

 Your ORCA version has been built with support for libXC version: 7.0.0
 For citations please refer to: https://libxc.gitlab.io

 This ORCA versions uses:
   CBLAS   interface :  Fast vector & matrix operations
   LAPACKE interface :  Fast linear algebra routines
   SCALAPACK package :  Parallel linear algebra routines
   Shared memory     :  Shared parallel matrices
   BLAS/LAPACK       :  OpenBLAS 0.3.29  USE64BITINT DYNAMIC_ARCH NO_AFFINITY Zen SINGLE_THREADED
        Core in use  :  Zen
   Copyright (c) 2011-2014, The OpenBLAS Project


  ***********************************
  * Starting time: Mon Oct 13 14:09:01 2025
  * Host name:     mc076.hpc.nesi.org.nz
  * Process ID:    795813
  * Working dir.:  /nesi/nobackup/nesi99999/geoffreyweal/ORCA_tutorial/Step3_Opt_TS
  ***********************************

NOTE: MaxCore=2000 MB was set to SCF,MP2,MDCI,CIPSI,MRCI,RASCI and CIS
      => If you want to overwrite this, your respective input block should be placed after the MaxCore statement


***************************************
The coordinates will be read from file: orca.073.xyz
***************************************


Your calculation utilizes the atom-pairwise dispersion correction
with the Becke-Johnson damping scheme (D3BJ)


Warning: RI is on but no J-basis has been assigned. Assigning Def2/J (nothing to worry about!)
================================================================================

----- Orbital basis set information -----
Your calculation utilizes the basis: def2-TZVP
   F. Weigend and R. Ahlrichs, Phys. Chem. Chem. Phys. 7, 3297 (2005).

----- AuxJ basis set information -----
Your calculation utilizes the auxiliary basis: def2/J
   H-Rn: F. Weigend, Phys. Chem. Chem. Phys. 8, 1057 (2006).
   Fr-Lr: K. Eichkorn, F. Weigend, O. Treutler, R. Ahlrichs; Theor. Chem. Acc. 97, 119 (1997).

================================================================================
                                        WARNINGS
                       Please study these warnings very carefully!
================================================================================


WARNING: The environment variable RSH_COMMAND is not set!
  ===> : All Displacements for the Numerical Hessian or Gradient calculation
         will be started on localhost

WARNING: Geometry Optimization
  ===> : Switching off AutoStart
         For restart on a previous wavefunction, please use MOREAD

================================================================================
                                       INPUT FILE
================================================================================
NAME = orca.inp
|  1> !B3LYP DEF2-TZVP D3BJ
|  2> !OptTS NumFreq TightOPT TightSCF defgrid2
|  3> %SCF
|  4>     MaxIter 2000       # Here setting MaxIter to a very high number. Intended for systems that require sometimes 1000 iterations before converging (very rare).
|  5>     DIISMaxEq 5        # Default value is 5. A value of 15-40 necessary for difficult systems.
|  6>     directresetfreq 15 # Default value is 15. A value of 1 (very expensive) is sometimes required. A value between 1 and 15 may be more cost-effective.
|  7> END
|  8> %CPCM EPSILON 6.02 REFRAC 1.3723 END
|  9> %PAL NPROCS 32 END
| 10> %maxcore 2000
| 11> %GEOM
| 12>     Calc_Hess true # Calculate Hessian in the beginning
| 13>     NumHess true # Request numerical Hessian (analytical not available)
| 14>     Recalc_Hess 1  # Recalculate the Hessian for every step
| 15> END
| 16> * xyzfile 1 1 orca.073.xyz
| 17> 
| 18> 
| 19>                          ****END OF INPUT****
================================================================================

                       *****************************
                       * Geometry Optimization Run *
                       *****************************

Geometry optimization settings:
Update method            Update   .... Bofill
Choice of coordinates    CoordSys .... (2022) Redundant Internals
Initial Hessian          InHess   .... Almloef's Model
Max. no of cycles        MaxIter  .... 54

Convergence Tolerances:
Energy Change            TolE     ....  1.0000e-06 Eh
Max. Gradient            TolMAXG  ....  1.0000e-04 Eh/bohr
RMS Gradient             TolRMSG  ....  3.0000e-05 Eh/bohr
Max. Displacement        TolMAXD  ....  1.0000e-03 bohr
RMS Displacement         TolRMSD  ....  6.0000e-04 bohr
Strict Convergence                .... False

------------------------------------------------------------------------------
                        ORCA OPTIMIZATION COORDINATE SETUP
------------------------------------------------------------------------------

The optimization will be done in redundant internal coordinates (2022)
Making redundant internal coordinates   ...  (2022 redundants) done
Following TS mode number                ...     0
Evaluating the initial hessian          ...  (Is done on the fly) done
Evaluating the coordinates              ...  done
Calculating the B-matrix                .... done
Calculating the G-matrix                .... done
The number of degrees of freedom        ....   97

    -----------------------------------------------------------------
                    Redundant Internal Coordinates


    -----------------------------------------------------------------
         Definition                    Initial Value    d2E/dq (diagonal element)
    -----------------------------------------------------------------
      1. B(C   1,C   0)                  1.3881         0.000000   
      2. B(C   2,C   1)                  1.3966         0.000000   
      3. B(C   3,C   2)                  1.3973         0.000000   
      4. B(C   4,C   3)                  1.3873         0.000000   
      5. B(C   5,C   4)                  1.3927         0.000000   
      6. B(C   5,C   0)                  1.3913         0.000000   
      7. B(H   6,C   0)                  1.0821         0.000000   
      8. B(H   7,C   5)                  1.0822         0.000000   
      9. B(H   8,C   1)                  1.0831         0.000000   
     10. B(H   9,C   3)                  1.0834         0.000000   
     11. B(H  10,C   4)                  1.0821         0.000000   
     12. B(C  11,C   2)                  1.4748         0.000000   
     13. B(N  12,C  11)                  1.4097         0.000000   
     14. B(H  13,N  12)                  1.0103         0.000000   
     15. B(H  14,N  12)                  1.0106         0.000000   
     16. B(H  15,C  11)                  1.0808         0.000000   
     17. B(Cu 17,H  16)                  1.5246         0.000000   
     18. B(Cu 17,N  12)                  2.1085         0.000000   
     19. B(Cu 17,C  11)                  2.0291         0.000000   
     20. A(C   5,C   0,H   6)          120.1902         0.000000   
     21. A(C   1,C   0,H   6)          119.7788         0.000000   
     22. A(C   1,C   0,C   5)          120.0310         0.000000   
     23. A(C   2,C   1,H   8)          119.6258         0.000000   
     24. A(C   0,C   1,H   8)          120.1468         0.000000   
     25. A(C   0,C   1,C   2)          120.2268         0.000000   
     26. A(C   3,C   2,C  11)          122.2173         0.000000   
     27. A(C   1,C   2,C   3)          119.5384         0.000000   
     28. A(C   1,C   2,C  11)          118.2352         0.000000   
     29. A(C   4,C   3,H   9)          119.1545         0.000000   
     30. A(C   2,C   3,H   9)          120.7496         0.000000   
     31. A(C   2,C   3,C   4)          120.0868         0.000000   
     32. A(C   3,C   4,H  10)          119.7276         0.000000   
     33. A(C   3,C   4,C   5)          120.1616         0.000000   
     34. A(C   5,C   4,H  10)          120.1101         0.000000   
     35. A(C   0,C   5,C   4)          119.9515         0.000000   
     36. A(C   4,C   5,H   7)          119.9810         0.000000   
     37. A(C   0,C   5,H   7)          120.0673         0.000000   
     38. A(H  15,C  11,Cu 17)          110.2765         0.000000   
     39. A(N  12,C  11,Cu 17)           73.1451         0.000000   
     40. A(C   2,C  11,Cu 17)          119.3897         0.000000   
     41. A(N  12,C  11,H  15)          113.3555         0.000000   
     42. A(C   2,C  11,H  15)          114.9566         0.000000   
     43. A(C   2,C  11,N  12)          119.0749         0.000000   
     44. A(H  14,N  12,Cu 17)          115.3209         0.000000   
     45. A(H  13,N  12,Cu 17)          119.0515         0.000000   
     46. A(C  11,N  12,Cu 17)           67.0722         0.000000   
     47. A(H  13,N  12,H  14)          113.9447         0.000000   
     48. A(C  11,N  12,H  14)          116.3391         0.000000   
     49. A(C  11,N  12,H  13)          117.3603         0.000000   
     50. A(C  11,Cu 17,N  12)           39.7827         0.000000   
     51. A(N  12,Cu 17,H  16)           98.7109         0.000000   
     52. A(C  11,Cu 17,H  16)           59.0329         0.000000   
     53. D(H   8,C   1,C   0,C   5)    179.9561         0.000000   
     54. D(C   2,C   1,C   0,H   6)    179.5316         0.000000   
     55. D(C   2,C   1,C   0,C   5)     -0.3529         0.000000   
     56. D(H   8,C   1,C   0,H   6)     -0.1594         0.000000   
     57. D(C   3,C   2,C   1,H   8)   -179.5639         0.000000   
     58. D(C  11,C   2,C   1,C   0)   -178.1824         0.000000   
     59. D(C   3,C   2,C   1,C   0)      0.7435         0.000000   
     60. D(C  11,C   2,C   1,H   8)      1.5102         0.000000   
     61. D(H   9,C   3,C   2,C  11)     -2.9370         0.000000   
     62. D(C   4,C   3,C   2,C  11)    178.1700         0.000000   
     63. D(H   9,C   3,C   2,C   1)    178.1816         0.000000   
     64. D(C   4,C   3,C   2,C   1)     -0.7115         0.000000   
     65. D(H  10,C   4,C   3,C   2)    179.9757         0.000000   
     66. D(C   5,C   4,C   3,H   9)   -178.6203         0.000000   
     67. D(C   5,C   4,C   3,C   2)      0.2904         0.000000   
     68. D(H  10,C   4,C   3,H   9)      1.0650         0.000000   
     69. D(H   7,C   5,C   4,H  10)      0.2324         0.000000   
     70. D(H   7,C   5,C   4,C   3)    179.9166         0.000000   
     71. D(C   0,C   5,C   4,C   3)      0.1047         0.000000   
     72. D(H   7,C   5,C   0,H   6)      0.2306         0.000000   
     73. D(H   7,C   5,C   0,C   1)   -179.8853         0.000000   
     74. D(C   4,C   5,C   0,H   6)   -179.9577         0.000000   
     75. D(C   4,C   5,C   0,C   1)     -0.0737         0.000000   
     76. D(C   0,C   5,C   4,H  10)   -179.5794         0.000000   
     77. D(Cu 17,C  11,C   2,C   1)   -126.6089         0.000000   
     78. D(H  15,C  11,C   2,C   3)   -171.0114         0.000000   
     79. D(H  15,C  11,C   2,C   1)      7.8840         0.000000   
     80. D(N  12,C  11,C   2,C   3)    -31.6288         0.000000   
     81. D(N  12,C  11,C   2,C   1)    147.2666         0.000000   
     82. D(H  13,N  12,C  11,H  15)    142.7058         0.000000   
     83. D(H  13,N  12,C  11,C   2)      2.7139         0.000000   
     84. D(H  14,N  12,C  11,Cu 17)    107.9843         0.000000   
     85. D(H  14,N  12,C  11,H  15)      2.7006         0.000000   
     86. D(H  14,N  12,C  11,C   2)   -137.2913         0.000000   
     87. D(H  13,N  12,C  11,Cu 17)   -112.0105         0.000000   
     88. D(H  16,Cu 17,N  12,H  14)   -105.4074         0.000000   
     89. D(H  16,Cu 17,N  12,H  13)    113.6571         0.000000   
     90. D(C  11,Cu 17,N  12,H  14)   -109.4394         0.000000   
     91. D(C  11,Cu 17,N  12,H  13)    109.6251         0.000000   
     92. D(H  16,Cu 17,C  11,H  15)    -66.1022         0.000000   
     93. D(H  16,Cu 17,C  11,N  12)   -175.3507         0.000000   
     94. D(H  16,Cu 17,N  12,C  11)      4.0320         0.000000   
     95. D(H  16,Cu 17,C  11,C   2)     70.3108         0.000000   
     96. D(N  12,Cu 17,C  11,H  15)    109.2486         0.000000   
     97. D(N  12,Cu 17,C  11,C   2)   -114.3385         0.000000   
    -----------------------------------------------------------------

Number of atoms                         .... 18
Number of degrees of freedom            .... 97


         *************************************************************
         *                GEOMETRY OPTIMIZATION CYCLE   1            *
         *************************************************************
---------------------------------
CARTESIAN COORDINATES (ANGSTROEM)
---------------------------------
  C     -2.972014    1.861667    1.643742
  C     -1.833855    2.619833    1.406040
  C     -0.625916    2.287172    2.023106
  C     -0.567453    1.176674    2.869099
  C     -1.706632    0.420654    3.104046
  C     -2.910969    0.761582    2.493363
  H     -3.905925    2.130452    1.167738
  H     -3.797580    0.168944    2.677655
  H     -1.879083    3.476168    0.744425
  H      0.365847    0.883601    3.334802
  H     -1.654663   -0.438445    3.759959
  C      0.545961    3.146507    1.771526
  N      1.501591    3.318237    2.793582
  H      1.360843    2.804325    3.651988
  H      1.848233    4.257666    2.930084
  H      0.336525    4.054397    1.223823
  H      1.045957    2.396418    0.207750
  Cu     2.271593    2.308608    1.110312

----------------------------
CARTESIAN COORDINATES (A.U.)
----------------------------
  NO LB      ZA    FRAG     MASS         X           Y           Z
   0 C     6.0000    0    12.011   -5.616293    3.518041    3.106223
   1 C     6.0000    0    12.011   -3.465483    4.950767    2.657031
   2 C     6.0000    0    12.011   -1.182810    4.322129    3.823116
   3 C     6.0000    0    12.011   -1.072331    2.223591    5.421812
   4 C     6.0000    0    12.011   -3.225067    0.794921    5.865797
   5 C     6.0000    0    12.011   -5.500934    1.439181    4.711772
   6 H     1.0000    0     1.008   -7.381129    4.025972    2.206705
   7 H     1.0000    0     1.008   -7.176386    0.319258    5.060035
   8 H     1.0000    0     1.008   -3.550953    6.569006    1.406759
   9 H     1.0000    0     1.008    0.691350    1.669763    6.301863
  10 H     1.0000    0     1.008   -3.126859   -0.828540    7.105293
  11 C     6.0000    0    12.011    1.031717    5.946036    3.347699
  12 N     7.0000    0    14.007    2.837595    6.270559    5.279104
  13 H     1.0000    0     1.008    2.571621    5.299407    6.901258
  14 H     1.0000    0     1.008    3.492653    8.045822    5.537057
  15 H     1.0000    0     1.008    0.635940    7.661699    2.312690
  16 H     1.0000    0     1.008    1.976572    4.528574    0.392590
  17 Cu   29.0000    0    63.550    4.292689    4.362638    2.098185

--------------------------------
INTERNAL COORDINATES (ANGSTROEM)
--------------------------------
 C      0   0   0     0.000000000000     0.00000000     0.00000000
 C      1   0   0     1.388065165491     0.00000000     0.00000000
 C      2   1   0     1.396620769726   120.22675573     0.00000000
 C      3   2   1     1.397258217225   119.53838822     0.74347304
 C      4   3   2     1.387261267263   120.08678299   359.28850500
 C      1   2   3     1.391319004642   120.03095600   359.64706800
 H      1   2   3     1.082134500237   119.77878691   179.53160740
 H      6   1   2     1.082248832007   120.06727377   180.11468272
 H      2   1   3     1.083092916556   120.14675121   180.30900920
 H      4   3   2     1.083429509031   120.74959569   178.18155086
 H      5   4   3     1.082114905795   119.72755325   179.97569278
 C      3   2   1     1.474803131990   118.23522312   181.81756928
 N     12   3   2     1.409721867934   119.07488716   147.26662069
 H     13  12   3     1.010335181817   117.36033523     2.71393972
 H     13  12   3     1.010604057379   116.33913911   222.70874399
 H     12   3   2     1.080789579541   114.95658306     7.88402780
 H     12   3   2     1.804999989095    97.22454713   276.81476692
 Cu    17  12   3     1.524635270602    74.55840483   235.78422920

---------------------------
INTERNAL COORDINATES (A.U.)
---------------------------
 C      0   0   0     0.000000000000     0.00000000     0.00000000
 C      1   0   0     2.623063018815     0.00000000     0.00000000
 C      2   1   0     2.639230767728   120.22675573     0.00000000
 C      3   2   1     2.640435368927   119.53838822     0.74347304
 C      4   3   2     2.621543871324   120.08678299   359.28850500
 C      1   2   3     2.629211883693   120.03095600   359.64706800
 H      1   2   3     2.044937845515   119.77878691   179.53160740
 H      6   1   2     2.045153901250   120.06727377   180.11468272
 H      2   1   3     2.046748989881   120.14675121   180.30900920
 H      4   3   2     2.047385057478   120.74959569   178.18155086
 H      5   4   3     2.044900817387   119.72755325   179.97569278
 C      3   2   1     2.786974020910   118.23522312   181.81756928
 N     12   3   2     2.663988255395   119.07488716   147.26662069
 H     13  12   3     1.909256797100   117.36033523     2.71393972
 H     13  12   3     1.909764898276   116.33913911   222.70874399
 H     12   3   2     2.042396313728   114.95658306     7.88402780
 H     12   3   2     3.410955651120    97.22454713   276.81476692
 Cu    17  12   3     2.881143115555    74.55840483   235.78422920

---------------------
BASIS SET INFORMATION
---------------------
There are 4 groups of distinct atoms

 Group   1 Type C   : 11s6p2d1f contracted to 5s3p2d1f pattern {62111/411/11/1}
 Group   2 Type H   : 5s1p contracted to 3s1p pattern {311/1}
 Group   3 Type N   : 11s6p2d1f contracted to 5s3p2d1f pattern {62111/411/11/1}
 Group   4 Type Cu  : 17s11p7d1f contracted to 6s4p4d1f pattern {842111/6311/4111/1}

Atom   0C    basis set group =>   1
Atom   1C    basis set group =>   1
Atom   2C    basis set group =>   1
Atom   3C    basis set group =>   1
Atom   4C    basis set group =>   1
Atom   5C    basis set group =>   1
Atom   6H    basis set group =>   2
Atom   7H    basis set group =>   2
Atom   8H    basis set group =>   2
Atom   9H    basis set group =>   2
Atom  10H    basis set group =>   2
Atom  11C    basis set group =>   1
Atom  12N    basis set group =>   3
Atom  13H    basis set group =>   2
Atom  14H    basis set group =>   2
Atom  15H    basis set group =>   2
Atom  16H    basis set group =>   2
Atom  17Cu   basis set group =>   4
---------------------------------
AUXILIARY/J BASIS SET INFORMATION
---------------------------------
There are 4 groups of distinct atoms

 Group   1 Type C   : 12s5p4d2f1g contracted to 6s4p3d1f1g pattern {711111/2111/211/2/1}
 Group   2 Type H   : 5s2p1d contracted to 3s1p1d pattern {311/2/1}
 Group   3 Type N   : 12s5p4d2f1g contracted to 6s4p3d1f1g pattern {711111/2111/211/2/1}
 Group   4 Type Cu  : 19s5p5d3f3g contracted to 8s5p4d3f3g pattern {121111111/11111/2111/111/111}

Atom   0C    basis set group =>   1
Atom   1C    basis set group =>   1
Atom   2C    basis set group =>   1
Atom   3C    basis set group =>   1
Atom   4C    basis set group =>   1
Atom   5C    basis set group =>   1
Atom   6H    basis set group =>   2
Atom   7H    basis set group =>   2
Atom   8H    basis set group =>   2
Atom   9H    basis set group =>   2
Atom  10H    basis set group =>   2
Atom  11C    basis set group =>   1
Atom  12N    basis set group =>   3
Atom  13H    basis set group =>   2
Atom  14H    basis set group =>   2
Atom  15H    basis set group =>   2
Atom  16H    basis set group =>   2
Atom  17Cu   basis set group =>   4


           ************************************************************
           *        Program running with 32 parallel MPI-processes    *
           *              working on a common directory               *
           ************************************************************
------------------------------------------------------------------------------
                             ORCA STARTUP CALCULATIONS
                           -- RI-GTO INTEGRALS CHOSEN --
------------------------------------------------------------------------------
------------------------------------------------------------------------------
                   ___                                                        
                  /   \      - P O W E R E D   B Y -                         
                 /     \                                                     
                 |  |  |   _    _      __       _____    __    __             
                 |  |  |  | |  | |    /  \     |  _  \  |  |  /  |          
                  \  \/   | |  | |   /    \    | | | |  |  | /  /          
                 / \  \   | |__| |  /  /\  \   | |_| |  |  |/  /          
                |  |  |   |  __  | /  /__\  \  |    /   |      \           
                |  |  |   | |  | | |   __   |  |    \   |  |\   \          
                \     /   | |  | | |  |  |  |  | |\  \  |  | \   \       
                 \___/    |_|  |_| |__|  |__|  |_| \__\ |__|  \__/        
                                                                              
                      - O R C A' S   B I G   F R I E N D -                    
                                      &                                       
                       - I N T E G R A L  F E E D E R -                       
                                                                              
 v1 FN, 2020, v2 2021, v3 2022-2024                                           
------------------------------------------------------------------------------


----------------------
SHARK INTEGRAL PACKAGE
----------------------

Number of atoms                             ...     18
Number of basis functions                   ...    347
Number of shells                            ...    139
Maximum angular momentum                    ...      3
Integral batch strategy                     ... SHARK/LIBINT Hybrid
RI-J (if used) integral strategy            ... SPLIT-RIJ (Revised 2003 algorithm where possible)
Printlevel                                  ...      1
Contraction scheme used                     ... SEGMENTED contraction
Prescreening option                         ... SCHWARTZ
   Thresh                                   ... 2.500e-11
   Tcut                                     ... 2.500e-12
   Tpresel                                  ... 2.500e-12 
Coulomb Range Separation                    ... NOT USED
Exchange Range Separation                   ... NOT USED
Multipole approximations                    ... NOT USED
Finite Nucleus Model                        ... NOT USED
CABS basis                                  ... NOT available
Auxiliary Coulomb fitting basis             ... AVAILABLE
   # of basis functions in Aux-J            ...    582
   # of shells in Aux-J                     ...    188
   Maximum angular momentum in Aux-J        ...      4
Auxiliary J/K fitting basis                 ... NOT available
Auxiliary Correlation fitting basis         ... NOT available
Auxiliary 'external' fitting basis          ... NOT available

Checking pre-screening integrals            ... done (  0.6 sec) Dimension = 139
   => SHARK Basis and OBASIS are compatible. Storing Pre-screening
Shell pair information
Shell pair cut-off parameter TPreSel        ...   2.5e-12
Total number of shell pairs                 ...      9730
Shell pairs after pre-screening             ...      8629
Total number of primitive shell pairs       ...     31637
Primitive shell pairs kept                  ...     20237
          la=0 lb=0:   2310 shell pairs
          la=1 lb=0:   2402 shell pairs
          la=1 lb=1:    645 shell pairs
          la=2 lb=0:   1311 shell pairs
          la=2 lb=1:    687 shell pairs
          la=2 lb=2:    197 shell pairs
          la=3 lb=0:    571 shell pairs
          la=3 lb=1:    303 shell pairs
          la=3 lb=2:    163 shell pairs
          la=3 lb=3:     40 shell pairs

Checking whether 4 symmetric matrices of dimension 347 fit in memory
:Max Core in MB      =   2000.00
 MB in use           =     14.35
 MB left             =   1985.65
 MB needed           =      1.84
 Data fit in memory  = YES
Calculating RI/J V-Matrix + Cholesky decomp.... done (  1.1 sec)
Calculating Nuclear repulsion               ... done (  0.0 sec) ENN=    611.891021950392 Eh

Diagonalization of the overlap matrix:
Smallest eigenvalue                        ... 8.512e-06
Time for diagonalization                   ...    0.039 sec
Threshold for overlap eigenvalues          ... 1.000e-07
Number of eigenvalues below threshold      ... 0
Time for construction of square roots      ...    0.093 sec
Total time needed                          ...    0.400 sec

-------------------
DFT GRID GENERATION
-------------------

General Integration Accuracy     IntAcc      ... 4.388
Radial Grid Type                 RadialGrid  ... OptM3 with GC (2021)
Angular Grid (max. ang.)         AngularGrid ... 4 (Lebedev-302)
Angular grid pruning method      GridPruning ... 4 (adaptive)
Weight generation scheme         WeightScheme... mBecke (2022)
Basis function cutoff            BFCut       ... 1.0000e-11
Integration weight cutoff        WCut        ... 1.0000e-14
Partially contracted basis set               ... off
Rotationally invariant grid construction     ... off
Angular grids for H and He will be reduced by one unit
Core-polarized basis detected: some atoms will have their core
                               angular grid increased.

Total number of grid points                  ...    88066
Total number of batches                      ...     1384
Average number of points per batch           ...       63
Average number of grid points per atom       ...     4893

--------------------
COSX GRID GENERATION
--------------------

GRIDX 1
-------
General Integration Accuracy     IntAcc      ... 3.816
Radial Grid Type                 RadialGrid  ... OptM3 with GC (2021)
Angular Grid (max. ang.)         AngularGrid ... 1 (Lebedev-50)
Angular grid pruning method      GridPruning ... 4 (adaptive)
Weight generation scheme         WeightScheme... mBecke (2022)
Basis function cutoff            BFCut       ... 1.0000e-11
Integration weight cutoff        WCut        ... 1.0000e-14
Partially contracted basis set               ... on
Rotationally invariant grid construction     ... off
Angular grids for H and He will be reduced by one unit
Core-polarized basis detected: some atoms will have their core
                               angular grid increased.

Total number of grid points                  ...    15734
Total number of batches                      ...      130
Average number of points per batch           ...      121
Average number of grid points per atom       ...      874
UseSFitting                                  ... on

GRIDX 2
-------
General Integration Accuracy     IntAcc      ... 4.020
Radial Grid Type                 RadialGrid  ... OptM3 with GC (2021)
Angular Grid (max. ang.)         AngularGrid ... 2 (Lebedev-110)
Angular grid pruning method      GridPruning ... 4 (adaptive)
Weight generation scheme         WeightScheme... mBecke (2022)
Basis function cutoff            BFCut       ... 1.0000e-11
Integration weight cutoff        WCut        ... 1.0000e-14
Partially contracted basis set               ... on
Rotationally invariant grid construction     ... off
Angular grids for H and He will be reduced by one unit
Core-polarized basis detected: some atoms will have their core
                               angular grid increased.

Total number of grid points                  ...    27015
Total number of batches                      ...      219
Average number of points per batch           ...      123
Average number of grid points per atom       ...     1501
UseSFitting                                  ... on

GRIDX 3
-------
General Integration Accuracy     IntAcc      ... 4.338
Radial Grid Type                 RadialGrid  ... OptM3 with GC (2021)
Angular Grid (max. ang.)         AngularGrid ... 3 (Lebedev-194)
Angular grid pruning method      GridPruning ... 4 (adaptive)
Weight generation scheme         WeightScheme... mBecke (2022)
Basis function cutoff            BFCut       ... 1.0000e-11
Integration weight cutoff        WCut        ... 1.0000e-14
Partially contracted basis set               ... on
Rotationally invariant grid construction     ... off
Angular grids for H and He will be reduced by one unit
Core-polarized basis detected: some atoms will have their core
                               angular grid increased.

Total number of grid points                  ...    52232
Total number of batches                      ...      417
Average number of points per batch           ...      125
Average number of grid points per atom       ...     2902
UseSFitting                                  ... on
Grids setup in  28.4 sec
Initializing property integral containers    ... done (  0.3 sec)

SHARK setup successfully completed in  32.9 seconds

Maximum memory used throughout the entire STARTUP-calculation: 33.5 MB


           ************************************************************
           *        Program running with 32 parallel MPI-processes    *
           *              working on a common directory               *
           ************************************************************
-------------------------------------------------------------------------------
                                 ORCA GUESS
                   Start orbitals & Density for SCF / CASSCF
-------------------------------------------------------------------------------

------------
SCF SETTINGS
------------
Hamiltonian:
 Density Functional     Method          .... DFT(GTOs)
 Exchange Functional    Exchange        .... B88
   X-Alpha parameter    XAlpha          ....  0.666667
   Becke's b parameter  XBeta           ....  0.004200
 Correlation Functional Correlation     .... LYP
 LDA part of GGA corr.  LDAOpt          .... VWN-5
 Gradients option       PostSCFGGA      .... off
 Hybrid DFT is turned on
   Fraction HF Exchange ScalHFX         ....  0.200000
   Scaling of DF-GGA-X  ScalDFX         ....  0.720000
   Scaling of DF-GGA-C  ScalDFC         ....  0.810000
   Scaling of DF-LDA-C  ScalLDAC        ....  1.000000
   Perturbative correction              ....  0.000000
   NL short-range parameter             ....  4.800000
 RI-approximation to the Coulomb term is turned on
   Number of AuxJ basis functions       .... 582
   RIJ-COSX (HFX calculated with COS-X)).... on


General Settings:
 Integral files         IntName         .... orca
 Hartree-Fock type      HFTyp           .... RHF
 Total Charge           Charge          ....    1
 Multiplicity           Mult            ....    1
 Number of Electrons    NEL             ....   86
 Basis Dimension        Dim             ....  347
 Nuclear Repulsion      ENuc            ....    611.8910219504 Eh

Convergence Acceleration:
 AO-DIIS                CNVDIIS         .... on
   Start iteration      DIISMaxIt       ....    12
   Startup error        DIISStart       ....  0.200000
   # of expansion vecs  DIISMaxEq       ....     5
   Bias factor          DIISBfac        ....   1.050
   Max. coefficient     DIISMaxC        ....  10.000
 MO-DIIS                CNVKDIIS        .... off
 Trust-Rad. Augm. Hess. CNVTRAH         .... auto
   Auto Start mean grad. ratio tolernc. ....  1.125000
   Auto Start start iteration           ....    50
   Auto Start num. interpolation iter.  ....    10
   Max. Number of Micro iterations      ....    24
   Max. Number of Macro iterations      .... Maxiter - #DIIS iter
   Number of Davidson start vectors     ....     2
   Converg. threshold    (grad. norm)   ....   1.000e-05
   Grad. Scal. Fac. for Micro threshold ....   0.100
   Minimum threshold for Micro iter.    ....   1.000e-02
   NR start threshold (gradient norm)   ....   1.000e-04
   Initial trust radius                 ....   0.400
   Minimum AH scaling param. (alpha)    ....   1.000
   Maximum AH scaling param. (alpha)    .... 1000.000
   Quad. conv. algorithm                .... NR
   White noise on init. David. guess    .... on
   Maximum white noise                  ....   0.010
   Pseudo random numbers                .... off
   Inactive MOs                         .... canonical
   Orbital update algorithm             .... Taylor
   Preconditioner                       .... Diag
   Full preconditioner red. dimension   ....   250
 SOSCF                 CNVSOSCF           .... on
   Start iteration     SOSCFMaxIt         ....   150
   Startup grad/error  SOSCFStart         ....  0.003300
   Hessian update      SOSCFHessUp        .... L-BFGS
   Autom. constraints  SOSCFAutoConstrain .... off
 Level Shifting         CNVShift        .... on
   Level shift para.    LevelShift      ....    0.2500
   Turn off err/grad.   ShiftErr        ....    0.0010
 Zerner damping         CNVZerner       .... off
 Static damping         CNVDamp         .... on
   Fraction old density DampFac         ....    0.7000
   Max. Damping (<1)    DampMax         ....    0.9800
   Min. Damping (>=0)   DampMin         ....    0.0000
   Turn off err/grad.   DampErr         ....    0.1000

SCF Procedure:
 Maximum # iterations   MaxIter         ....  2000
 SCF integral mode      SCFMode         .... Direct
   Integral package                     .... SHARK and LIBINT hybrid scheme
 Reset frequency        DirectResetFreq ....    15
 Integral Threshold     Thresh          ....  2.500e-11 Eh
 Primitive CutOff       TCut            ....  2.500e-12 Eh

Convergence Tolerance:
 Convergence Check Mode ConvCheckMode   .... Total+1el-Energy
 Convergence forced     ConvForced      .... 0
 Energy Change          TolE            ....  1.000e-08 Eh
 1-El. energy change                    ....  1.000e-05 Eh
 Orbital Gradient       TolG            ....  1.000e-05
 Orbital Rotation angle TolX            ....  1.000e-05
 DIIS Error             TolErr          ....  5.000e-07

------------------------------
INITIAL GUESS: MODEL POTENTIAL
------------------------------
Loading Hartree-Fock densities                     ... done
Calculating cut-offs                               ... done
Initializing the effective Hamiltonian             ... done
Setting up the integral package (SHARK)            ... done
Starting the Coulomb interaction                   ... done (   1.2 sec)
Making the grid                                    ... done (   7.9 sec)
Mapping shells                                     ... done
Starting the XC term evaluation                    ... done (   0.1 sec)
  promolecular density results
     # of electrons  =     86.992721343
     EX              =   -111.094753966
     EC              =     -3.308713445
     EX+EC           =   -114.403467411
Transforming the Hamiltonian                       ... done (   1.1 sec)
Diagonalizing the Hamiltonian                      ... done (   0.6 sec)
Back transforming the eigenvectors                 ... done (   0.4 sec)
Now organizing SCF variables                       ... done
                      ------------------
                      INITIAL GUESS DONE (  13.1 sec)
                      ------------------
             **** ENERGY FILE WAS UPDATED (orca.en.tmp) ****
Finished Guess after  19.9 sec
Maximum memory used throughout the entire GUESS-calculation: 19.7 MB


           ************************************************************
           *        Program running with 32 parallel MPI-processes    *
           *              working on a common directory               *
           ************************************************************

-------------------------------------------------------------------------------------------
                                      ORCA LEAN-SCF
                              memory conserving SCF solver
-------------------------------------------------------------------------------------------

--------------------
CPCM SOLVATION MODEL
--------------------
CPCM parameters:
  Epsilon                                         ...       6.0200
  Refrac                                          ...       1.3723
  Rsolv                                           ...       1.3000
  Surface type                                    ... GAUSSIAN VDW
  Discretization scheme                           ... Constant charge density
    Threshold for H atoms                         ...       5.0000 (charges/Ang^2)
    Threshold for non-H atoms                     ...       5.0000 (charges/Ang^2)
  Epsilon function type                           ...         CPCM
Solvent:                                          ... CUSTOM
Radii:
  Scheme                                          ... Element-dependent radii
  Radius for C  used is    3.8550 Bohr (=   2.0400 Ang.)
  Radius for H  used is    2.4944 Bohr (=   1.3200 Ang.)
  Radius for N  used is    3.5149 Bohr (=   1.8600 Ang.)
  Radius for Cu used is    3.1747 Bohr (=   1.6800 Ang.)
Calculating surface                               ...        done! (  0.0s)
Cavity surface points                             ...         1638
Cavity Volume                                     ...    1077.6712
Cavity Surface-area                               ...     613.7033
Calculating surface distance matrix               ...        done! (  0.4s)
Performing Cholesky decomposition & store         ...        done! (  2.0s)
Overall time for CPCM initialization              ...                 2.3s

----------------------------------------D-I-I-S--------------------------------------------
Iteration    Energy (Eh)           Delta-E    RMSDP     MaxDP     DIISErr   Damp  Time(sec)
-------------------------------------------------------------------------------------------
               ***  Starting incremental Fock matrix formation  ***
    1    -1966.8808089787157769     0.00e+00  6.83e-03  3.92e-02  2.26e-01  0.700  31.7
    2    -1966.9749103120739164    -9.41e-02  5.05e-03  2.52e-02  9.96e-02  0.700  30.6
                               ***Turning on AO-DIIS***
    3    -1967.0137482088025536    -3.88e-02  2.58e-03  1.72e-02  2.98e-02  0.700  29.8
    4    -1967.0364732691223253    -2.27e-02  5.13e-03  4.22e-02  1.54e-02  0.000  29.7
    5    -1967.0860405762718983    -4.96e-02  1.05e-03  9.57e-03  5.29e-03  0.000  30.4
    6    -1967.0862564956069036    -2.16e-04  4.84e-04  3.51e-03  1.13e-02  0.000  31.1
    7    -1967.0863681353862376    -1.12e-04  2.29e-04  1.96e-03  4.49e-03  0.000  34.0
                              *** Initializing SOSCF ***
---------------------------------------S-O-S-C-F--------------------------------------
Iteration    Energy (Eh)           Delta-E    RMSDP     MaxDP     MaxGrad    Time(sec)
--------------------------------------------------------------------------------------
    8    -1967.0863870165253502    -1.89e-05  1.04e-04  1.26e-03  5.53e-04    32.8
               *** Restarting incremental Fock matrix formation ***
    9    -1967.0864036831253543    -1.67e-05  1.09e-04  1.20e-03  1.94e-04    27.8
   10    -1967.0864045609223467    -8.78e-07  6.30e-05  5.88e-04  8.58e-05    27.7
   11    -1967.0864046185060943    -5.76e-08  4.09e-05  2.48e-04  1.48e-04    31.8
   12    -1967.0864047517784456    -1.33e-07  3.81e-05  4.68e-04  1.07e-04    30.9
   13    -1967.0864049121423704    -1.60e-07  2.72e-05  3.28e-04  4.39e-05    34.0
   14    -1967.0864050113650592    -9.92e-08  7.59e-06  4.53e-05  1.15e-05    32.1
   15    -1967.0864049995375353     1.18e-08  7.28e-06  5.01e-05  1.07e-05    30.1
   16    -1967.0864050154114011    -1.59e-08  1.25e-05  8.48e-05  2.85e-06    31.6
   17    -1967.0864050252148445    -9.80e-09  8.88e-06  6.01e-05  1.63e-06    35.3
                 **** Energy Check signals convergence ****

               *****************************************************
               *                     SUCCESS                       *
               *           SCF CONVERGED AFTER  17 CYCLES          *
               *****************************************************

Recomputing exchange energy using gridx3       ... done (    3.890 sec)
Old exchange energy                            :    -22.290331426 Eh
New exchange energy                            :    -22.290324979 Eh
Exchange energy change after final integration :      0.000006448 Eh
Total energy after final integration           :  -1967.086398570 Eh
             **** ENERGY FILE WAS UPDATED (orca.en.tmp) ****

----------------
TOTAL SCF ENERGY
----------------

Total Energy       :      -1967.08639856972559 Eh          -53527.14217 eV

Components:
Nuclear Repulsion  :        611.89102195039152 Eh           16650.40120 eV
Electronic Energy  :      -2578.88184859077683 Eh          -70174.94273 eV
One Electron Energy:      -3927.44873509304534 Eh         -106871.31331 eV
Two Electron Energy:       1348.56688650226829 Eh           36696.37059 eV
CPCM Dielectric    :         -0.09557837695831 Eh              -2.60082 eV

Virial components:
Potential Energy   :      -3930.22330503365583 Eh         -106946.81320 eV
Kinetic Energy     :       1963.13690646393025 Eh           53419.67103 eV
Virial Ratio       :          2.00201182713890

DFT components:
N(Alpha)           :       43.000029582527 electrons
N(Beta)            :       43.000029582527 electrons
N(Total)           :       86.000059165054 electrons
E(X)               :      -88.849550373079 Eh       
E(C)               :       -3.857343787411 Eh       
E(XC)              :      -92.706894160490 Eh       

CPCM Solvation Model Properties:
Surface-charge          :         -1.03225565330260
Corrected charge        :         -1.00000000000000
Outlying charge corr.   :          0.00006398865402 Eh               0.00174 eV
Free-energy (cav+disp)  :  This term is not implemented in the current solvation scheme

---------------
SCF CONVERGENCE
---------------

  Last Energy change         ...    9.8034e-09  Tolerance :   1.0000e-08
  Last MAX-Density change    ...    6.0096e-05  Tolerance :   1.0000e-07
  Last RMS-Density change    ...    8.8805e-06  Tolerance :   5.0000e-09
  Last DIIS Error            ...    5.5309e-04  Tolerance :   5.0000e-07
  Last Orbital Gradient      ...    1.6255e-06  Tolerance :   1.0000e-05
  Last Orbital Rotation      ...    2.0043e-06  Tolerance :   1.0000e-05


----------------
ORBITAL ENERGIES
----------------

  NO   OCC          E(Eh)            E(eV) 
   0   2.0000    -323.070850     -8791.2048 
   1   2.0000     -38.866917     -1057.6226 
   2   2.0000     -34.071780      -927.1403 
   3   2.0000     -34.071388      -927.1296 
   4   2.0000     -34.070790      -927.1133 
   5   2.0000     -14.395533      -391.7224 
   6   2.0000     -10.304804      -280.4080 
   7   2.0000     -10.224270      -278.2165 
   8   2.0000     -10.208854      -277.7970 
   9   2.0000     -10.207270      -277.7539 
  10   2.0000     -10.202779      -277.6317 
  11   2.0000     -10.202206      -277.6161 
  12   2.0000     -10.201234      -277.5897 
  13   2.0000      -4.356994      -118.5598 
  14   2.0000      -2.855836       -77.7113 
  15   2.0000      -2.851611       -77.5963 
  16   2.0000      -2.844317       -77.3978 
  17   2.0000      -0.985229       -26.8095 
  18   2.0000      -0.892257       -24.2795 
  19   2.0000      -0.803133       -21.8544 
  20   2.0000      -0.780053       -21.2263 
  21   2.0000      -0.714717       -19.4484 
  22   2.0000      -0.644515       -17.5381 
  23   2.0000      -0.628298       -17.0968 
  24   2.0000      -0.586356       -15.9555 
  25   2.0000      -0.560550       -15.2533 
  26   2.0000      -0.519932       -14.1481 
  27   2.0000      -0.491743       -13.3810 
  28   2.0000      -0.477294       -12.9878 
  29   2.0000      -0.472529       -12.8582 
  30   2.0000      -0.452342       -12.3089 
  31   2.0000      -0.445984       -12.1358 
  32   2.0000      -0.399185       -10.8624 
  33   2.0000      -0.393848       -10.7171 
  34   2.0000      -0.380185       -10.3454 
  35   2.0000      -0.373409       -10.1610 
  36   2.0000      -0.350247        -9.5307 
  37   2.0000      -0.340060        -9.2535 
  38   2.0000      -0.337492        -9.1836 
  39   2.0000      -0.329210        -8.9583 
  40   2.0000      -0.293794        -7.9946 
  41   2.0000      -0.288962        -7.8631 
  42   2.0000      -0.264716        -7.2033 
  43   0.0000      -0.116108        -3.1595 
  44   0.0000      -0.054163        -1.4739 
  45   0.0000      -0.043902        -1.1946 
  46   0.0000      -0.025182        -0.6852 
  47   0.0000       0.019699         0.5360 
  48   0.0000       0.024788         0.6745 
  49   0.0000       0.042575         1.1585 
  50   0.0000       0.047416         1.2903 
  51   0.0000       0.073164         1.9909 
  52   0.0000       0.077379         2.1056 
  53   0.0000       0.087757         2.3880 
*Only the first 10 virtual orbitals were printed.

                    ********************************
                    * MULLIKEN POPULATION ANALYSIS *
                    ********************************

-----------------------
MULLIKEN ATOMIC CHARGES
-----------------------
   0 C :   -0.113593
   1 C :   -0.201924
   2 C :    0.093357
   3 C :   -0.207807
   4 C :   -0.140814
   5 C :   -0.123596
   6 H :    0.149531
   7 H :    0.150993
   8 H :    0.148620
   9 H :    0.149908
  10 H :    0.148682
  11 C :    0.183693
  12 N :   -0.434926
  13 H :    0.291909
  14 H :    0.295754
  15 H :    0.197831
  16 H :   -0.098637
  17 Cu:    0.511019
Sum of atomic charges:    1.0000000

--------------------------------
MULLIKEN REDUCED ORBITAL CHARGES
--------------------------------
  0 C s       :     3.208425  s :     3.208425
      pz      :     0.943654  p :     2.817429
      px      :     0.953870
      py      :     0.919905
      dz2     :     0.012698  d :     0.080453
      dxz     :     0.016627
      dyz     :     0.011753
      dx2y2   :     0.021719
      dxy     :     0.017656
      f0      :     0.000805  f :     0.007287
      f+1     :     0.000361
      f-1     :     0.001379
      f+2     :     0.000916
      f-2     :     0.001466
      f+3     :     0.001560
      f-3     :     0.000800

  1 C s       :     3.264114  s :     3.264114
      pz      :     0.976943  p :     2.849989
      px      :     0.894246
      py      :     0.978800
      dz2     :     0.008011  d :     0.080436
      dxz     :     0.019876
      dyz     :     0.011676
      dx2y2   :     0.023006
      dxy     :     0.017867
      f0      :     0.000589  f :     0.007384
      f+1     :     0.001217
      f-1     :     0.000642
      f+2     :     0.001148
      f-2     :     0.001163
      f+3     :     0.001566
      f-3     :     0.001060

  2 C s       :     3.229732  s :     3.229732
      pz      :     0.962609  p :     2.543164
      px      :     0.752812
      py      :     0.827743
      dz2     :     0.023149  d :     0.123637
      dxz     :     0.021880
      dyz     :     0.015566
      dx2y2   :     0.034802
      dxy     :     0.028241
      f0      :     0.000794  f :     0.010109
      f+1     :     0.001347
      f-1     :     0.001470
      f+2     :     0.001138
      f-2     :     0.001894
      f+3     :     0.001872
      f-3     :     0.001593

  3 C s       :     3.265194  s :     3.265194
      pz      :     0.968114  p :     2.853269
      px      :     0.987932
      py      :     0.897224
      dz2     :     0.013397  d :     0.081954
      dxz     :     0.017087
      dyz     :     0.012128
      dx2y2   :     0.024283
      dxy     :     0.015059
      f0      :     0.000835  f :     0.007390
      f+1     :     0.000339
      f-1     :     0.001393
      f+2     :     0.000931
      f-2     :     0.001501
      f+3     :     0.001565
      f-3     :     0.000826

  4 C s       :     3.226287  s :     3.226287
      pz      :     0.945973  p :     2.825943
      px      :     0.901666
      py      :     0.978304
      dz2     :     0.008857  d :     0.081244
      dxz     :     0.019944
      dyz     :     0.011046
      dx2y2   :     0.023636
      dxy     :     0.017762
      f0      :     0.000605  f :     0.007341
      f+1     :     0.001169
      f-1     :     0.000658
      f+2     :     0.001110
      f-2     :     0.001227
      f+3     :     0.001576
      f-3     :     0.000996

  5 C s       :     3.222097  s :     3.222097
      pz      :     0.922082  p :     2.813619
      px      :     0.960693
      py      :     0.930845
      dz2     :     0.017519  d :     0.080672
      dxz     :     0.014683
      dyz     :     0.010428
      dx2y2   :     0.014754
      dxy     :     0.023288
      f0      :     0.000444  f :     0.007208
      f+1     :     0.001061
      f-1     :     0.001330
      f+2     :     0.000948
      f-2     :     0.001266
      f+3     :     0.000969
      f-3     :     0.001190

  6 H s       :     0.828150  s :     0.828150
      pz      :     0.006229  p :     0.022319
      px      :     0.011572
      py      :     0.004517

  7 H s       :     0.826773  s :     0.826773
      pz      :     0.004425  p :     0.022234
      px      :     0.010766
      py      :     0.007043

  8 H s       :     0.829033  s :     0.829033
      pz      :     0.008153  p :     0.022346
      px      :     0.003641
      py      :     0.010553

  9 H s       :     0.827704  s :     0.827704
      pz      :     0.006258  p :     0.022387
      px      :     0.011193
      py      :     0.004936

 10 H s       :     0.829014  s :     0.829014
      pz      :     0.008083  p :     0.022304
      px      :     0.003583
      py      :     0.010638

 11 C s       :     3.046988  s :     3.046988
      pz      :     0.832647  p :     2.606548
      px      :     0.839302
      py      :     0.934600
      dz2     :     0.027308  d :     0.152138
      dxz     :     0.034599
      dyz     :     0.028923
      dx2y2   :     0.035150
      dxy     :     0.026159
      f0      :     0.001549  f :     0.010633
      f+1     :     0.001888
      f-1     :     0.000658
      f+2     :     0.001921
      f-2     :     0.001907
      f+3     :     0.001560
      f-3     :     0.001150

 12 N s       :     3.490594  s :     3.490594
      pz      :     1.160199  p :     3.906725
      px      :     1.444571
      py      :     1.301956
      dz2     :     0.008326  d :     0.034700
      dxz     :     0.005804
      dyz     :     0.007263
      dx2y2   :     0.006916
      dxy     :     0.006391
      f0      :     0.000277  f :     0.002906
      f+1     :     0.000477
      f-1     :     0.000578
      f+2     :     0.000429
      f-2     :     0.000442
      f+3     :     0.000433
      f-3     :     0.000270

 13 H s       :     0.669975  s :     0.669975
      pz      :     0.018256  p :     0.038116
      px      :     0.009289
      py      :     0.010571

 14 H s       :     0.666847  s :     0.666847
      pz      :     0.006672  p :     0.037399
      px      :     0.011290
      py      :     0.019437

 15 H s       :     0.778620  s :     0.778620
      pz      :     0.006939  p :     0.023549
      px      :     0.004888
      py      :     0.011722

 16 H s       :     1.084377  s :     1.084377
      pz      :     0.006056  p :     0.014260
      px      :     0.005481
      py      :     0.002722

 17 Cus       :     6.459798  s :     6.459798
      pz      :     4.115632  p :    12.278041
      px      :     4.137961
      py      :     4.024448
      dz2     :     1.934402  d :     9.751046
      dxz     :     1.899129
      dyz     :     1.992520
      dx2y2   :     1.971922
      dxy     :     1.953074
      f0      :     0.000009  f :     0.000096
      f+1     :     0.000007
      f-1     :     0.000013
      f+2     :     0.000018
      f-2     :     0.000017
      f+3     :     0.000019
      f-3     :     0.000013



                     *******************************
                     * LOEWDIN POPULATION ANALYSIS *
                     *******************************

----------------------
LOEWDIN ATOMIC CHARGES
----------------------
   0 C :   -0.123466
   1 C :   -0.086242
   2 C :   -0.152889
   3 C :   -0.094249
   4 C :   -0.123997
   5 C :   -0.116592
   6 H :    0.154376
   7 H :    0.153832
   8 H :    0.158927
   9 H :    0.158242
  10 H :    0.154090
  11 C :   -0.182803
  12 N :    0.049649
  13 H :    0.197835
  14 H :    0.204778
  15 H :    0.171493
  16 H :    0.036244
  17 Cu:    0.440773

-------------------------------
LOEWDIN REDUCED ORBITAL CHARGES
-------------------------------
  0 C s       :     2.765566  s :     2.765566
      pz      :     0.936072  p :     2.933782
      px      :     1.002787
      py      :     0.994924
      dz2     :     0.047144  d :     0.380806
      dxz     :     0.077952
      dyz     :     0.058937
      dx2y2   :     0.103371
      dxy     :     0.093403
      f0      :     0.005236  f :     0.043312
      f+1     :     0.003209
      f-1     :     0.005221
      f+2     :     0.005017
      f-2     :     0.008531
      f+3     :     0.010023
      f-3     :     0.006075

  1 C s       :     2.757112  s :     2.757112
      pz      :     0.917043  p :     2.905220
      px      :     1.033656
      py      :     0.954522
      dz2     :     0.035635  d :     0.380795
      dxz     :     0.082596
      dyz     :     0.055746
      dx2y2   :     0.115603
      dxy     :     0.091215
      f0      :     0.003886  f :     0.043115
      f+1     :     0.007683
      f-1     :     0.001674
      f+2     :     0.004683
      f-2     :     0.007707
      f+3     :     0.010186
      f-3     :     0.007295

  2 C s       :     2.701868  s :     2.701868
      pz      :     0.933563  p :     2.874955
      px      :     0.974777
      py      :     0.966615
      dz2     :     0.085352  d :     0.518191
      dxz     :     0.100093
      dyz     :     0.070873
      dx2y2   :     0.117229
      dxy     :     0.144644
      f0      :     0.005244  f :     0.057874
      f+1     :     0.007262
      f-1     :     0.005397
      f+2     :     0.006653
      f-2     :     0.011568
      f+3     :     0.012464
      f-3     :     0.009287

  3 C s       :     2.755005  s :     2.755005
      pz      :     0.930453  p :     2.916207
      px      :     1.003478
      py      :     0.982276
      dz2     :     0.048714  d :     0.379817
      dxz     :     0.075690
      dyz     :     0.059228
      dx2y2   :     0.107292
      dxy     :     0.088893
      f0      :     0.005394  f :     0.043220
      f+1     :     0.003120
      f-1     :     0.005355
      f+2     :     0.004928
      f-2     :     0.008277
      f+3     :     0.009969
      f-3     :     0.006177

  4 C s       :     2.765578  s :     2.765578
      pz      :     0.922174  p :     2.932596
      px      :     1.055495
      py      :     0.954926
      dz2     :     0.035901  d :     0.382436
      dxz     :     0.082148
      dyz     :     0.054761
      dx2y2   :     0.118694
      dxy     :     0.090932
      f0      :     0.003909  f :     0.043387
      f+1     :     0.007523
      f-1     :     0.001690
      f+2     :     0.004694
      f-2     :     0.007914
      f+3     :     0.010504
      f-3     :     0.007153

  5 C s       :     2.767943  s :     2.767943
      pz      :     0.939931  p :     2.924107
      px      :     1.008987
      py      :     0.975189
      dz2     :     0.068839  d :     0.381428
      dxz     :     0.068592
      dyz     :     0.054204
      dx2y2   :     0.075190
      dxy     :     0.114604
      f0      :     0.003805  f :     0.043114
      f+1     :     0.005676
      f-1     :     0.005001
      f+2     :     0.006334
      f-2     :     0.007941
      f+3     :     0.007557
      f-3     :     0.006800

  6 H s       :     0.786325  s :     0.786325
      pz      :     0.016876  p :     0.059300
      px      :     0.029498
      py      :     0.012926

  7 H s       :     0.786847  s :     0.786847
      pz      :     0.012601  p :     0.059321
      px      :     0.027786
      py      :     0.018934

  8 H s       :     0.781458  s :     0.781458
      pz      :     0.021607  p :     0.059615
      px      :     0.010696
      py      :     0.027312

  9 H s       :     0.781787  s :     0.781787
      pz      :     0.017155  p :     0.059971
      px      :     0.028932
      py      :     0.013885

 10 H s       :     0.786620  s :     0.786620
      pz      :     0.021243  p :     0.059291
      px      :     0.010788
      py      :     0.027259

 11 C s       :     2.784144  s :     2.784144
      pz      :     0.893967  p :     2.820380
      px      :     0.931171
      py      :     0.995241
      dz2     :     0.095537  d :     0.517775
      dxz     :     0.124198
      dyz     :     0.101154
      dx2y2   :     0.110794
      dxy     :     0.086091
      f0      :     0.009860  f :     0.060504
      f+1     :     0.012367
      f-1     :     0.003682
      f+2     :     0.009175
      f-2     :     0.010331
      f+3     :     0.008406
      f-3     :     0.006682

 12 N s       :     2.981717  s :     2.981717
      pz      :     1.191115  p :     3.804805
      px      :     1.384899
      py      :     1.228791
      dz2     :     0.042359  d :     0.153064
      dxz     :     0.030682
      dyz     :     0.037133
      dx2y2   :     0.022613
      dxy     :     0.020277
      f0      :     0.001225  f :     0.010765
      f+1     :     0.002046
      f-1     :     0.001922
      f+2     :     0.001370
      f-2     :     0.001969
      f+3     :     0.001182
      f-3     :     0.001053

 13 H s       :     0.692016  s :     0.692016
      pz      :     0.049840  p :     0.110149
      px      :     0.027429
      py      :     0.032880

 14 H s       :     0.686239  s :     0.686239
      pz      :     0.018510  p :     0.108983
      px      :     0.032146
      py      :     0.058327

 15 H s       :     0.766086  s :     0.766086
      pz      :     0.018764  p :     0.062421
      px      :     0.011248
      py      :     0.032409

 16 H s       :     0.930543  s :     0.930543
      pz      :     0.013397  p :     0.033213
      px      :     0.013139
      py      :     0.006677

 17 Cus       :     6.285593  s :     6.285593
      pz      :     4.207411  p :    12.341325
      px      :     4.101596
      py      :     4.032319
      dz2     :     1.971563  d :     9.932170
      dxz     :     1.949520
      dyz     :     2.025879
      dx2y2   :     1.997347
      dxy     :     1.987860
      f0      :     0.000014  f :     0.000139
      f+1     :     0.000010
      f-1     :     0.000020
      f+2     :     0.000028
      f-2     :     0.000023
      f+3     :     0.000026
      f-3     :     0.000019



                      *****************************
                      * MAYER POPULATION ANALYSIS *
                      *****************************

  NA   - Mulliken gross atomic population
  ZA   - Total nuclear charge
  QA   - Mulliken gross atomic charge
  VA   - Mayer's total valence
  BVA  - Mayer's bonded valence
  FA   - Mayer's free valence

  ATOM       NA         ZA         QA         VA         BVA        FA
  0 C      6.1136     6.0000    -0.1136     3.8709     3.8709     0.0000
  1 C      6.2019     6.0000    -0.2019     3.9580     3.9580     0.0000
  2 C      5.9066     6.0000     0.0934     3.6971     3.6971     0.0000
  3 C      6.2078     6.0000    -0.2078     3.9155     3.9155     0.0000
  4 C      6.1408     6.0000    -0.1408     3.9165     3.9165     0.0000
  5 C      6.1236     6.0000    -0.1236     3.8885     3.8885     0.0000
  6 H      0.8505     1.0000     0.1495     0.9641     0.9641    -0.0000
  7 H      0.8490     1.0000     0.1510     0.9630     0.9630     0.0000
  8 H      0.8514     1.0000     0.1486     0.9680     0.9680     0.0000
  9 H      0.8501     1.0000     0.1499     0.9746     0.9746    -0.0000
 10 H      0.8513     1.0000     0.1487     0.9659     0.9659    -0.0000
 11 C      5.8163     6.0000     0.1837     3.7461     3.7461    -0.0000
 12 N      7.4349     7.0000    -0.4349     3.2141     3.2141    -0.0000
 13 H      0.7081     1.0000     0.2919     0.9280     0.9280    -0.0000
 14 H      0.7042     1.0000     0.2958     0.9224     0.9224    -0.0000
 15 H      0.8022     1.0000     0.1978     0.9655     0.9655    -0.0000
 16 H      1.0986     1.0000    -0.0986     1.0127     1.0127    -0.0000
 17 Cu    28.4890    29.0000     0.5110     1.5333     1.5333    -0.0000

  Mayer bond orders larger than 0.100000
B(  0-C ,  1-C ) :   1.4240 B(  0-C ,  5-C ) :   1.3834 B(  0-C ,  6-H ) :   0.9715 
B(  1-C ,  2-C ) :   1.3489 B(  1-C ,  8-H ) :   0.9683 B(  2-C ,  3-C ) :   1.2962 
B(  2-C , 11-C ) :   1.0241 B(  3-C ,  4-C ) :   1.4471 B(  3-C ,  9-H ) :   0.9661 
B(  4-C ,  5-C ) :   1.3803 B(  4-C , 10-H ) :   0.9691 B(  5-C ,  7-H ) :   0.9657 
B( 11-C , 12-N ) :   1.0000 B( 11-C , 15-H ) :   0.9792 B( 11-C , 16-H ) :   0.2408 
B( 11-C , 17-Cu) :   0.4710 B( 12-N , 13-H ) :   0.8966 B( 12-N , 14-H ) :   0.8962 
B( 12-N , 17-Cu) :   0.2929 B( 16-H , 17-Cu) :   0.6430 

-------
TIMINGS
-------

Total SCF time: 0 days 0 hours 10 min 3 sec 

Total time                  ....     603.717 sec
Sum of individual times     ....     565.360 sec  ( 93.6%)

SCF preparation             ....      20.430 sec  (  3.4%)
Fock matrix formation       ....     345.620 sec  ( 57.2%)
  Startup                   ....       3.565 sec  (  1.0% of F)
  Split-RI-J                ....      23.888 sec  (  6.9% of F)
  Chain of spheres X        ....     156.730 sec  ( 45.3% of F)
  XC integration            ....     112.111 sec  ( 32.4% of F)
    XC Preparation          ....       0.000 sec  (  0.0% of XC)
    Basis function eval.    ....       0.313 sec  (  0.3% of XC)
    Density eval.           ....       0.311 sec  (  0.3% of XC)
    XC-Functional eval.     ....       0.024 sec  (  0.0% of XC)
    XC-Potential eval.      ....       0.246 sec  (  0.2% of XC)
  CPCM terms                ....      15.350 sec  (  4.4% of F)
Diagonalization             ....       0.000 sec  (  0.0%)
Density matrix formation    ....      26.522 sec  (  4.4%)
Total Energy calculation    ....      21.095 sec  (  3.5%)
Population analysis         ....       5.199 sec  (  0.9%)
Orbital Transformation      ....       7.317 sec  (  1.2%)
Orbital Orthonormalization  ....       0.000 sec  (  0.0%)
DIIS solution               ....      61.279 sec  ( 10.2%)
SOSCF solution              ....      77.898 sec  ( 12.9%)
Finished LeanSCF after 605.1 sec

Maximum memory used throughout the entire LEANSCF-calculation: 32.4 MB


-------------------------------------------------------------------------------
                          DFT DISPERSION CORRECTION                            
                                                                               
                              DFTD3 V3.1  Rev 1                                
                          USING Becke-Johnson damping                          
-------------------------------------------------------------------------------
The B3LYP functional is recognized
Active option DFTDOPT                   ...         4   

molecular C6(AA) [au] = 4478.738478 


            DFT-D V3
 parameters
 s6 scaling factor         :     1.0000 
 a1 scaling factor         :     0.3981 
 s8 scaling factor         :     1.9889 
 a2 scaling factor         :     4.4211 
 ad hoc parameters k1-k3   :    16.0000     1.3333    -4.0000 

 Edisp/kcal,au: -22.438773405551  -0.035758457744 
 E6   /kcal   : -10.093765278 
 E8   /kcal   : -12.345008127 
 % E8         :  55.016412459 

-------------------------   ----------------
Dispersion correction           -0.035758458
-------------------------   ----------------


-------------------------   --------------------
FINAL SINGLE POINT ENERGY     -1967.122157027469
-------------------------   --------------------



           ************************************************************
           *        Program running with 32 parallel MPI-processes    *
           *              working on a common directory               *
           ************************************************************
------------------------------------------------------------------------------
                         ORCA SCF GRADIENT CALCULATION
------------------------------------------------------------------------------

Nuc. rep. gradient        (SHARK) ... done (  0.0 sec)
HCore & Overlap gradient  (SHARK) ... done (  1.7 sec)
Split-RIJ-J gradient      (SHARK) ... done (  1.9 sec)
done ( 17.9 sec)
XC gradient                       ... done (  8.1 sec)
CPCM gradient                     ... done (  1.4 sec)
Dispersion correction             ... done (  0.0 sec)

-------------------
DISPERSION GRADIENT
-------------------

   1   C   :   -0.000374946   -0.000000541   -0.000086526
   2   C   :   -0.000564398    0.000078294   -0.000111912
   3   C   :   -0.000270938   -0.000044203    0.000012714
   4   C   :   -0.000375091   -0.000408837    0.000305035
   5   C   :   -0.000213312   -0.000328599    0.000206188
   6   C   :   -0.000255020   -0.000153566    0.000052129
   7   H   :   -0.000258136    0.000062933   -0.000121590
   8   H   :   -0.000234579   -0.000154913    0.000048619
   9   H   :   -0.000217901    0.000229228   -0.000196102
  10   H   :    0.000057505   -0.000289536    0.000288549
  11   H   :   -0.000012254   -0.000240090    0.000178720
  12   C   :    0.000341166    0.000242498   -0.000140785
  13   N   :    0.000433365    0.000310884    0.000179840
  14   H   :    0.000213993    0.000117412    0.000285484
  15   H   :    0.000171965    0.000236812    0.000152620
  16   H   :    0.000067852    0.000274173   -0.000123350
  17   H   :    0.000303559   -0.000001958   -0.000268881
  18   Cu  :    0.001187172    0.000070010   -0.000660752

Difference to translation invariance:
           :   -0.0000000000    0.0000000000   -0.0000000000

Difference to rotation invariance:
           :   -0.0000000000    0.0000000000    0.0000000000

Norm of the Dispersion gradient    ...    0.0021648425
RMS gradient                       ...    0.0002945977
MAX gradient                       ...    0.0011871718

------------------
CARTESIAN GRADIENT
------------------

   1   C   :   -0.000011122   -0.000011546    0.000008377
   2   C   :    0.000031333    0.000026281   -0.000000530
   3   C   :   -0.000091513    0.000106320   -0.000062291
   4   C   :    0.000030504    0.000009488    0.000002255
   5   C   :   -0.000000851    0.000000227    0.000019444
   6   C   :   -0.000000332    0.000009328    0.000001645
   7   H   :    0.000001209   -0.000003718   -0.000006898
   8   H   :   -0.000002908    0.000005442    0.000007799
   9   H   :   -0.000003410   -0.000011416   -0.000012421
  10   H   :   -0.000008183   -0.000007710    0.000010881
  11   H   :    0.000005983    0.000010237    0.000016193
  12   C   :    0.000698270   -0.001068577   -0.002001301
  13   N   :    0.000249904    0.000010600    0.000118486
  14   H   :   -0.000032692   -0.000000519   -0.000007457
  15   H   :   -0.000030493    0.000016759   -0.000014496
  16   H   :   -0.000151227   -0.000034820   -0.000013915
  17   H   :   -0.000614109    0.000877549    0.001824446
  18   Cu  :   -0.000070365    0.000066074    0.000109782

Difference to translation invariance:
           :   -0.0000000003   -0.0000000002    0.0000000000

Difference to rotation invariance:
           :   -0.0005352959    0.0001352855   -0.0000455562

Norm of the Cartesian gradient     ...    0.0032036577
RMS gradient                       ...    0.0004359626
MAX gradient                       ...    0.0020013010

-------
TIMINGS
-------

Total SCF gradient time     ....       31.260 sec

Densities                   ....       0.055 sec  (  0.2%)
One electron gradient       ....       1.731 sec  (  5.5%)
RI-J Coulomb gradient       ....       1.868 sec  (  6.0%)
COSX gradient               ....      17.938 sec  ( 57.4%)
XC gradient                 ....       8.066 sec  ( 25.8%)
CPCM gradient               ....       1.383 sec  (  4.4%)
   A-Matrix (El+Nuc)        ....       0.071 sec  (  0.2%)
   Potential                ....       1.312 sec  (  4.2%)

[...]
     22      -0.414621   0.054920   0.084929  -0.321111   0.000174   0.000157
     23       0.130492  -0.015277  -0.026989   0.101376  -0.000098   0.000065
     24       0.015548  -0.007349  -0.002879  -0.007849  -0.000310   0.000039
     25      -0.267434   0.167013   0.015972   0.170925   0.000539  -0.000152
     26       0.205637  -0.128369  -0.013637  -0.130783  -0.000060   0.000099
     27      -0.217210  -0.171186  -0.022853   0.119414   0.001025  -0.000821
     28       0.067764   0.051297   0.006902  -0.035433   0.001424  -0.000991
     29      -0.106606  -0.082800  -0.010806   0.057197   0.001452  -0.000909
     30      -0.017523  -0.034157  -0.006268   0.024935   0.000009  -0.000000
     31       0.323044   0.553478   0.090167  -0.364116   0.000186   0.000268
     32      -0.243986  -0.418595  -0.068547   0.275976  -0.000145  -0.000228
     33       0.000795  -0.000225   0.014418   0.003160   0.001049   0.000612
     34      -0.002761   0.001534  -0.070341  -0.016253  -0.000573  -0.000543
     35       0.001714  -0.000889   0.044340   0.010308  -0.000803   0.000521
     36      -0.000058   0.000041   0.000042   0.000025  -0.011260  -0.025046
     37       0.000107   0.000041   0.001524   0.000308  -0.019517  -0.073389
     38      -0.000129   0.000007  -0.002146  -0.000493  -0.049383   0.035864
     39      -0.000632  -0.000240  -0.007033  -0.001455  -0.102191   0.104417
     40      -0.000864  -0.000143  -0.008101  -0.001596  -0.374581   0.345388
     41       0.000400  -0.000169   0.008652   0.001789   0.604880  -0.589091
     42      -0.000295   0.000007   0.000018   0.000476   0.241591   0.240796
     43      -0.000017   0.000171  -0.007441  -0.001356   0.645531   0.669969
     44      -0.000385  -0.000266   0.001844   0.000731   0.072072   0.091539
     45      -0.008305   0.004241  -0.180334  -0.040684   0.003437  -0.005416
     46       0.030367  -0.019130   0.807080   0.186829  -0.002317   0.012684
     47      -0.019303   0.011895  -0.503542  -0.116148   0.006336  -0.007747
     48      -0.001279   0.000274  -0.004358  -0.000266   0.000568  -0.000896
     49       0.000351  -0.000245   0.008248   0.001758   0.004605  -0.001021
     50       0.000200   0.000065  -0.004355  -0.001654   0.007825   0.000624
     51      -0.000016   0.000003   0.000042   0.000013  -0.000068  -0.000004
     52      -0.000007   0.000012   0.000021   0.000006   0.000024  -0.000001
     53       0.000027  -0.000003   0.000084   0.000009   0.000018   0.000004


-----------
IR SPECTRUM
-----------

 Mode   freq       eps      Int      T**2         TX        TY        TZ
       cm**-1   L/(mol*cm) km/mol    a.u.
----------------------------------------------------------------------------
  7:     58.18   0.000947    4.79  0.005078  (-0.028206  0.054242 -0.036616)
  8:     84.13   0.000800    4.04  0.002969  (-0.049535  0.007513  0.021416)
  9:    171.84   0.001006    5.09  0.001828  (-0.005035 -0.042152 -0.005043)
 10:    228.59   0.006816   34.45  0.009305  (-0.048545 -0.000675  0.083354)
 11:    260.60   0.000691    3.49  0.000827  (-0.024129 -0.005218 -0.014747)
 12:    361.45   0.008150   41.19  0.007036  ( 0.043794  0.012257 -0.070484)
 13:    413.26   0.000297    1.50  0.000224  (-0.010738 -0.007580  0.007155)
 14:    427.65   0.019699   99.55  0.014374  ( 0.085590  0.030905 -0.078062)
 15:    490.08   0.008313   42.01  0.005293  (-0.058490  0.006779  0.042734)
 16:    523.52   0.006715   33.93  0.004003  (-0.008312 -0.025845  0.057146)
 17:    579.22   0.005196   26.26  0.002799  ( 0.015359 -0.034964 -0.036619)
 18:    633.50   0.001969    9.95  0.000970  (-0.025801 -0.017428 -0.000829)
 19:    639.19   0.033256  168.06  0.016236  (-0.120269 -0.033771 -0.025128)
 20:    695.96   0.040040  202.34  0.017953  (-0.126529  0.036657  0.024494)
 21:    713.56   0.028280  142.92  0.012368  ( 0.047594 -0.070879 -0.071267)
 22:    792.39   0.002253   11.38  0.000887  ( 0.013149  0.008307  0.025403)
 23:    809.13   0.003832   19.36  0.001478  (-0.024046 -0.000541  0.029989)
 24:    861.16   0.000012    0.06  0.000005  ( 0.001592 -0.000005  0.001410)
 25:    949.18   0.000354    1.79  0.000116  ( 0.001643 -0.004910 -0.009460)
 26:    991.84   0.000140    0.71  0.000044  (-0.005627 -0.001082 -0.003370)
 27:   1017.62   0.000040    0.20  0.000012  ( 0.002456  0.002392 -0.000672)
 28:   1022.53   0.000545    2.76  0.000166  ( 0.012497 -0.002778 -0.001585)
 29:   1049.37   0.001726    8.72  0.000513  (-0.014604 -0.014494 -0.009476)
 30:   1092.26   0.006416   32.42  0.001833  (-0.003898 -0.032958 -0.027046)
 31:   1104.90   0.007445   37.62  0.002103  ( 0.016126  0.001610  0.042897)
 32:   1144.41   0.006049   30.57  0.001649  ( 0.024639 -0.016308 -0.027864)
 33:   1181.20   0.001631    8.24  0.000431  ( 0.002065  0.004232  0.020214)
 34:   1182.34   0.001082    5.47  0.000285  ( 0.002133 -0.004207 -0.016224)
 35:   1208.39   0.001158    5.85  0.000299  ( 0.014325  0.008968  0.003668)
 36:   1244.74   0.018822   95.12  0.004719  ( 0.056401  0.034359  0.018902)
 37:   1336.79   0.001756    8.88  0.000410  ( 0.019187  0.006366 -0.001147)
 38:   1369.30   0.000946    4.78  0.000215  ( 0.003097  0.013968 -0.003287)
 39:   1437.49   0.011260   56.90  0.002444  (-0.040001 -0.029018 -0.001522)
 40:   1492.70   0.004332   21.89  0.000906  ( 0.024522 -0.010196  0.014157)
 41:   1532.23   0.000192    0.97  0.000039  (-0.002296 -0.004403  0.003806)
 42:   1618.01   0.021007  106.16  0.004052  ( 0.036519  0.017209  0.049211)
 43:   1621.65   0.000391    1.98  0.000075  (-0.002724 -0.003826  0.007293)
 44:   1641.40   0.003096   15.65  0.000589  ( 0.020123  0.013395 -0.002056)
 45:   1776.88   0.007409   37.44  0.001301  (-0.023484 -0.018034 -0.020602)
 46:   3170.21   0.001071    5.41  0.000105  (-0.009789 -0.002617 -0.001664)
 47:   3174.89   0.000372    1.88  0.000037  (-0.001317 -0.004575  0.003731)
 48:   3183.78   0.000497    2.51  0.000049  ( 0.005324  0.004516 -0.000004)
 49:   3191.79   0.002231   11.27  0.000218  ( 0.007392 -0.009107  0.008974)
 50:   3197.99   0.000641    3.24  0.000063  (-0.006260  0.002805  0.003935)
 51:   3200.88   0.001252    6.33  0.000122  ( 0.009885  0.004737 -0.001378)
 52:   3527.19   0.025878  130.78  0.002290  ( 0.008079  0.022192  0.041615)
 53:   3629.01   0.021733  109.83  0.001869  ( 0.013590  0.038350 -0.014609)

* The epsilon (eps) is given for a Dirac delta lineshape.
** The dipole moment derivative (T) already includes vibrational overlap.

The first frequency considered to be a vibration is 7
The total number of vibrations considered is 47


--------------------------
THERMOCHEMISTRY AT 298.15K
--------------------------

Temperature         ...   298.15 K
Pressure            ...     1.00 atm
Total Mass          ...   170.71 AMU
Quasi RRHO          ...     True
Cut-Off Frequency   ...     1.00 cm^-1

Throughout the following assumptions are being made:
  (1) The electronic state is orbitally nondegenerate
  (2) There are no thermally accessible electronically excited states
  (3) Hindered rotations indicated by low frequency modes are not
      treated as such but are treated as vibrations and this may
      cause some error
  (4) All equations used are the standard statistical mechanics
      equations for an ideal gas
  (5) All vibrations are strictly harmonic

freq.      58.18  E(vib)   ...       0.51 
freq.      84.13  E(vib)   ...       0.48 
freq.     171.84  E(vib)   ...       0.38 
freq.     228.59  E(vib)   ...       0.32 
freq.     260.60  E(vib)   ...       0.30 
freq.     361.45  E(vib)   ...       0.22 
freq.     413.26  E(vib)   ...       0.19 
freq.     427.65  E(vib)   ...       0.18 
freq.     490.08  E(vib)   ...       0.15 
freq.     523.52  E(vib)   ...       0.13 
freq.     579.22  E(vib)   ...       0.11 
freq.     633.50  E(vib)   ...       0.09 
freq.     639.19  E(vib)   ...       0.09 
freq.     695.96  E(vib)   ...       0.07 
freq.     713.56  E(vib)   ...       0.07 
freq.     792.39  E(vib)   ...       0.05 
freq.     809.13  E(vib)   ...       0.05 
freq.     861.16  E(vib)   ...       0.04 
freq.     949.18  E(vib)   ...       0.03 
freq.     991.84  E(vib)   ...       0.02 
freq.    1017.62  E(vib)   ...       0.02 
freq.    1022.53  E(vib)   ...       0.02 
freq.    1049.37  E(vib)   ...       0.02 
freq.    1092.26  E(vib)   ...       0.02 
freq.    1104.90  E(vib)   ...       0.02 
freq.    1144.41  E(vib)   ...       0.01 
freq.    1181.20  E(vib)   ...       0.01 
freq.    1182.34  E(vib)   ...       0.01 
freq.    1208.39  E(vib)   ...       0.01 
freq.    1244.74  E(vib)   ...       0.01 
freq.    1336.79  E(vib)   ...       0.01 
freq.    1369.30  E(vib)   ...       0.01 
freq.    1437.49  E(vib)   ...       0.00 
freq.    1492.70  E(vib)   ...       0.00 
freq.    1532.23  E(vib)   ...       0.00 
freq.    1618.01  E(vib)   ...       0.00 
freq.    1621.65  E(vib)   ...       0.00 
freq.    1641.40  E(vib)   ...       0.00 
freq.    1776.88  E(vib)   ...       0.00 
freq.    3170.21  E(vib)   ...       0.00 
freq.    3174.89  E(vib)   ...       0.00 
freq.    3183.78  E(vib)   ...       0.00 
freq.    3191.79  E(vib)   ...       0.00 
freq.    3197.99  E(vib)   ...       0.00 
freq.    3200.88  E(vib)   ...       0.00 
freq.    3527.19  E(vib)   ...       0.00 
freq.    3629.01  E(vib)   ...       0.00 

------------
INNER ENERGY
------------

The inner energy is: U= E(el) + E(ZPE) + E(vib) + E(rot) + E(trans)
    E(el)   - is the total energy from the electronic structure calculation
              = E(kin-el) + E(nuc-el) + E(el-el) + E(nuc-nuc)
    E(ZPE)  - the the zero temperature vibrational energy from the frequency calculation
    E(vib)  - the the finite temperature correction to E(ZPE) due to population
              of excited vibrational states
    E(rot)  - is the rotational thermal energy
    E(trans)- is the translational thermal energy

Summary of contributions to the inner energy U:
Electronic energy                ...  -1967.12210635 Eh
Zero point energy                ...      0.14132469 Eh      88.68 kcal/mol
Thermal vibrational correction   ...      0.00580368 Eh       3.64 kcal/mol
Thermal rotational correction    ...      0.00141627 Eh       0.89 kcal/mol
Thermal translational correction ...      0.00141627 Eh       0.89 kcal/mol
-----------------------------------------------------------------------
Total thermal energy                  -1966.97214544 Eh


Summary of corrections to the electronic energy:
(perhaps to be used in another calculation)
Total thermal correction                  0.00863622 Eh       5.42 kcal/mol
Non-thermal (ZPE) correction              0.14132469 Eh      88.68 kcal/mol
-----------------------------------------------------------------------
Total correction                          0.14996091 Eh      94.10 kcal/mol


--------
ENTHALPY
--------

The enthalpy is H = U + kB*T
                kB is Boltzmann's constant
Total thermal energy              ...  -1966.97214544 Eh 
Thermal Enthalpy correction       ...      0.00094421 Eh       0.59 kcal/mol
-----------------------------------------------------------------------
Total Enthalpy                    ...  -1966.97120123 Eh


Note: Only C1 symmetry has been detected, increase convergence thresholds 
      if your molecule has a higher symmetry. Symmetry factor of 1.0 is   
      used for the rotational entropy correction. 
 

Note: Rotational entropy computed according to Herzberg 
Infrared and Raman Spectra, Chapter V,1, Van Nostrand Reinhold, 1945 
Point Group:  C1, Symmetry Number:   1  
Rotational constants in cm-1:     0.103897     0.020434     0.019540 

Vibrational entropy computed according to the QRRHO of S. Grimme
Chem.Eur.J. 2012 18 9955 using a reference frequency of 100.0 cm-1


-------
ENTROPY
-------

The entropy contributions are T*S = T*(S(el)+S(vib)+S(rot)+S(trans))
     S(el)   - electronic entropy
     S(vib)  - vibrational entropy
     S(rot)  - rotational entropy
     S(trans)- translational entropy
The entropies will be listed as multiplied by the temperature to get
units of energy

Electronic entropy                ...      0.00000000 Eh      0.00 kcal/mol
Vibrational entropy               ...      0.00964603 Eh      6.05 kcal/mol
Rotational entropy                ...      0.01427431 Eh      8.96 kcal/mol
Translational entropy             ...      0.01962863 Eh     12.32 kcal/mol
-----------------------------------------------------------------------
Final entropy term                ...      0.04354896 Eh     27.33 kcal/mol

In case the symmetry of your molecule has not been determined correctly
or in case you have a reason to use a different symmetry number we print 
out the resulting rotational entropy values for sn=1,12:

 non-linear molecules -----------------------------------
|  sn= 1 | S(rot)=       0.01427431 Eh      8.96 kcal/mol|
|  sn= 2 | S(rot)=       0.01361985 Eh      8.55 kcal/mol|
|  sn= 3 | S(rot)=       0.01323702 Eh      8.31 kcal/mol|
|  sn= 4 | S(rot)=       0.01296539 Eh      8.14 kcal/mol|
|  sn= 5 | S(rot)=       0.01275471 Eh      8.00 kcal/mol|
|  sn= 6 | S(rot)=       0.01258256 Eh      7.90 kcal/mol|
|  sn= 7 | S(rot)=       0.01243702 Eh      7.80 kcal/mol|
|  sn= 8 | S(rot)=       0.01231094 Eh      7.73 kcal/mol|
|  sn= 9 | S(rot)=       0.01219973 Eh      7.66 kcal/mol|
|  sn=10 | S(rot)=       0.01210025 Eh      7.59 kcal/mol|
|  sn=11 | S(rot)=       0.01201026 Eh      7.54 kcal/mol|
|  sn=12 | S(rot)=       0.01192811 Eh      7.48 kcal/mol|
 linear molecules ---------------------------------------
|  Dinfh | S(rot)=       0.00904145 Eh      5.67 kcal/mol|
|  Cinfv | S(rot)=       0.00969590 Eh      6.08 kcal/mol|
 --------------------------------------------------------


-------------------
GIBBS FREE ENERGY
-------------------

The Gibbs free energy is G = H - T*S

Total enthalpy                    ...  -1966.97120123 Eh 
Total entropy correction          ...     -0.04354896 Eh    -27.33 kcal/mol
-----------------------------------------------------------------------
Final Gibbs free energy         ...  -1967.01475019 Eh

For completeness - the Gibbs free energy minus the electronic energy
G-E(el)                           ...      0.10735616 Eh     67.37 kcal/mol



--------------------------------
SUGGESTED CITATIONS FOR THIS RUN
--------------------------------

Below you find a list of papers that are relevant to this ORCA run
We neither can nor want to force you to cite these papers, but we appreciate if you do
You receive ORCA, which is the product of decades of hard work by many enthusiastic individuals, for free
The only thing we kindly ask in return is that you cite our papers,
We deeply appreciate it, if you show your appreciation for ORCA by not just citing the generic ORCA reference.

Please note that relegating all ORCA citations to the supporting information does *not* help us.
SI sections are not indexed - citations you put there will not count into any citation statistics
But we need these citations in order to attract the funding resources that allow us to do what we are doing

Therefore, if you are a happy ORCA user, please consider citing a few of the papers listed below in the main body of your paper

In addition to the list printed below, the program has created the file orca.bibtex that contains the list in bibtex format
You can import this file easily into all common literature databanks and citation aid programs


List of essential papers. We consider these as the minimum necessary citations

  1. Neese, F.
     Software update: the ORCA program system, version 6.0
     WIRES Comput. Molec. Sci. 2025 15(1), e70019
     doi.org/10.1002/wcms.7019

List of papers to cite with high priority. The work reported in these papers was absolutely
necessary for this run to complete.
Our perspective: the developers of density functionals and basis sets usually get cited in chemistry papers
Good! But without the algorithms to do something with them, the functionals or basis sets would not do anything.
Hence, in our opinion, the algorithm design and method developments papers are equally worthy of getting cited

  1. Neese, F.
     An improvement of the resolution of the identity approximation for the formation of the Coulomb matrix
     J. Comp. Chem. 2003 24(14), 1740-1747
     doi.org/10.1002/jcc.10318
  2. Neese, F.; Wennmohs, F.; Hansen, A.; Becker, U.
     Efficient, approximate and parallel Hartree-Fock and hybrid DFT calculations. A 'chain-of-spheres' algorithm for the Hartree-Fock exchange
     Chem. Phys. 2009 356(1-3), 98-109
     doi.org/10.1016/j.chemphys.2008.10.036
  3. Grimme, S.; Antony, J.; Ehrlich, S.; Krieg, H.
     A consistent and accurate ab initio parametrization of density functional dispersion correction (DFT-D) for the 94 elements H-Pu
     J. Chem. Phys. 2010 132 , 154104
     doi.org/10.1063/1.3382344
  4. Grimme, S.; Ehrlich, S.; Goerigk, L.
     Effect of the damping function in dispersion corrected density functional theory
     J. Comput. Chem. 2011 32(7), 1456-1465
     doi.org/10.1002/jcc.21759
  5. Garcia-Rates, M.; Neese, F.
     Effect of the Solute Cavity on the Solvation Energy and its Derivatives within the Framework of the Gaussian Charge Scheme
     J. Comput. Chem. 2020 41 , 922-939
     doi.org/10.1002/jcc.26139
  6. Helmich-Paris, B.; de Souza, B.; Neese, F.; Izsák, R.
     An improved chain of spheres for exchange algorithm
     J. Chem. Phys. 2021 155(10), 104109
     doi.org/10.1063/5.0058766
  7. Neese, F.
     The SHARK Integral Generation and Digestion System
     J. Comp. Chem. 2022 44(3), 381
     doi.org/10.1002/jcc.26942

List of suggested additional citations. These are papers that are important in the 'surrounding' of 
of this run, or papers that preceded the highly important papers. If you like your results we are grateful for a citation.

  1. Izsak, R.; Neese, F.
     An overlap fitted chain of spheres exchange method
     J. Chem. Phys. 2011 135 , 144105
     doi.org/10.1063/1.3646921
  2. Izsak, R.; Hansen, A.; Neese, F.
     The resolution of identity and chain of spheres approximations for the LPNO-CCSD singles Fock term
     Molec. Phys. 2012 110 , 2413-2417
     doi.org/10.1080/00268976.2012.687466
  3. Neese, F.
     The ORCA program system
     WIRES Comput. Molec. Sci. 2012 2(1), 73-78
     doi.org/10.1002/wcms.81
  4. Izsak, R.; Neese, F.; Klopper, W.
     Robust fitting techniques in the chain of spheres approximation to the Fock exchange: The role of the complementary space
     J. Chem. Phys. 2013 139 , 
     doi.org/10.1063/1.4819264
  5. Neese, F.
     Software update: the ORCA program system, version 4.0
     WIRES Comput. Molec. Sci. 2018 8(1), 1-6
     doi.org/10.1002/wcms.1327
  6. Neese, F.; Wennmohs, F.; Becker, U.; Riplinger, C.
     The ORCA quantum chemistry program package
     J. Chem. Phys. 2020 152(22), 224108
     doi.org/10.1063/5.0004608
  7. Neese, F.
     Software update: The ORCA program system—Version 5.0
     WIRES Comput. Molec. Sci. 2022 12(1), e1606
     doi.org/10.1002/wcms.1606

List of optional additional citations

  1. Neese, F.
     Approximate second-order SCF convergence for spin unrestricted wavefunctions
     Chem. Phys. Lett. 2000 325(1-3), 93-98
     doi.org/10.1016/s0009-2614(00)00662-x

Timings for individual modules:

Sum of individual times          ...     8525.056 sec (= 142.084 min)
Startup calculation              ...      382.665 sec (=   6.378 min)   4.5 %
SCF iterations                   ...     3088.753 sec (=  51.479 min)  36.2 %
Property calculations            ...        5.566 sec (=   0.093 min)   0.1 %
SCF Gradient evaluation          ...      322.668 sec (=   5.378 min)   3.8 %
Geometry relaxation              ...        0.185 sec (=   0.003 min)   0.0 %
Numerical frequency calculation  ...     4725.220 sec (=  78.754 min)  55.4 %
                             ****ORCA TERMINATED NORMALLY****
TOTAL RUN TIME: 0 days 1 hours 52 minutes 46 seconds 605 msec
