 Entering Gaussian System, Link 0=g09
 Initial command:
 /usr/local/g09/l1.exe "/gtmp/calvin.p/scratch/g09/2796934.zeus-master/Gau-3724312.inp" -scrdir="/gtmp/calvin.p/scratch/g09/2796934.zeus-master/"
 Entering Link 1 = /usr/local/g09/l1.exe PID=   3724313.
  
 Copyright (c) 1988,1990,1992,1993,1995,1998,2003,2009,2013,
            Gaussian, Inc.  All Rights Reserved.
  
 This is part of the Gaussian(R) 09 program.  It is based on
 the Gaussian(R) 03 system (copyright 2003, Gaussian, Inc.),
 the Gaussian(R) 98 system (copyright 1998, Gaussian, Inc.),
 the Gaussian(R) 94 system (copyright 1995, Gaussian, Inc.),
 the Gaussian 92(TM) system (copyright 1992, Gaussian, Inc.),
 the Gaussian 90(TM) system (copyright 1990, Gaussian, Inc.),
 the Gaussian 88(TM) system (copyright 1988, Gaussian, Inc.),
 the Gaussian 86(TM) system (copyright 1986, Carnegie Mellon
 University), and the Gaussian 82(TM) system (copyright 1983,
 Carnegie Mellon University). Gaussian is a federally registered
 trademark of Gaussian, Inc.
  
 This software contains proprietary and confidential information,
 including trade secrets, belonging to Gaussian, Inc.
  
 This software is provided under written license and may be
 used, copied, transmitted, or stored only in accord with that
 written license.
  
 The following legend is applicable only to US Government
 contracts under FAR:
  
                    RESTRICTED RIGHTS LEGEND
  
 Use, reproduction and disclosure by the US Government is
 subject to restrictions as set forth in subparagraphs (a)
 and (c) of the Commercial Computer Software - Restricted
 Rights clause in FAR 52.227-19.
  
 Gaussian, Inc.
 340 Quinnipiac St., Bldg. 40, Wallingford CT 06492
  
  
 ---------------------------------------------------------------
 Warning -- This program may not be used in any manner that
 competes with the business of Gaussian, Inc. or will provide
 assistance to any competitor of Gaussian, Inc.  The licensee
 of this program is prohibited from giving any competitor of
 Gaussian, Inc. access to this program.  By using this program,
 the user acknowledges that Gaussian, Inc. is engaged in the
 business of creating and licensing software in the field of
 computational chemistry and represents and warrants to the
 licensee that it is not a competitor of Gaussian, Inc. and that
 it will not use this program in any manner prohibited above.
 ---------------------------------------------------------------
  

 Cite this work as:
 Gaussian 09, Revision D.01,
 M. J. Frisch, G. W. Trucks, H. B. Schlegel, G. E. Scuseria, 
 M. A. Robb, J. R. Cheeseman, G. Scalmani, V. Barone, B. Mennucci, 
 G. A. Petersson, H. Nakatsuji, M. Caricato, X. Li, H. P. Hratchian, 
 A. F. Izmaylov, J. Bloino, G. Zheng, J. L. Sonnenberg, M. Hada, 
 M. Ehara, K. Toyota, R. Fukuda, J. Hasegawa, M. Ishida, T. Nakajima, 
 Y. Honda, O. Kitao, H. Nakai, T. Vreven, J. A. Montgomery, Jr., 
 J. E. Peralta, F. Ogliaro, M. Bearpark, J. J. Heyd, E. Brothers, 
 K. N. Kudin, V. N. Staroverov, T. Keith, R. Kobayashi, J. Normand, 
 K. Raghavachari, A. Rendell, J. C. Burant, S. S. Iyengar, J. Tomasi, 
 M. Cossi, N. Rega, J. M. Millam, M. Klene, J. E. Knox, J. B. Cross, 
 V. Bakken, C. Adamo, J. Jaramillo, R. Gomperts, R. E. Stratmann, 
 O. Yazyev, A. J. Austin, R. Cammi, C. Pomelli, J. W. Ochterski, 
 R. L. Martin, K. Morokuma, V. G. Zakrzewski, G. A. Voth, 
 P. Salvador, J. J. Dannenberg, S. Dapprich, A. D. Daniels, 
 O. Farkas, J. B. Foresman, J. V. Ortiz, J. Cioslowski, 
 and D. J. Fox, Gaussian, Inc., Wallingford CT, 2013.
 
 ******************************************
 Gaussian 09:  EM64L-G09RevD.01 24-Apr-2013
                18-Jun-2025 
 ******************************************
 %chk=check.chk
 %mem=32768mb
 %NProcShared=8
 Will use up to    8 processors via shared memory.
 ----------------------------------------------------------------------
 #P guess=read uwb97xd/def2tzvp freq IOp(7/33=1) integral=(grid=ultrafi
 ne, Acc2E=12) IOp(2/9=2000) scf=(direct,tight)
 ----------------------------------------------------------------------
 1/10=4,30=1,38=1/1,3;
 2/9=2000,12=2,17=6,18=5,40=1/2;
 3/5=44,7=101,11=2,16=1,25=1,30=1,71=2,74=-58,75=-5,116=2,140=1/1,2,3;
 4/5=1/1;
 5/5=2,32=2,38=6,87=12,98=1/2;
 8/6=4,10=90,11=11,87=12/1;
 11/6=1,8=1,9=11,15=111,16=1,87=12/1,2,10;
 10/6=1,87=12/2;
 6/7=2,8=2,9=2,10=2,18=1,28=1/1;
 7/8=1,10=1,25=1,33=1,87=12/1,2,3,16;
 1/10=4,30=1/3;
 99//99;
 Leave Link    1 at Wed Jun 18 07:44:09 2025, MaxMem=  4294967296 cpu:         0.6
 (Enter /usr/local/g09/l101.exe)
 ------------------------------------------
 rmg_rxn_10695_r1_sbr-N--sbrsbr-NHp-sbr=CCC
 ------------------------------------------
 Symbolic Z-matrix:
 Charge =  0 Multiplicity = 2
 N                     1.50351   1.1817    1.17667 
 N                     1.55803  -0.05112   0.81249 
 C                     0.84825  -0.71372  -0.08042 
 C                    -0.22124  -0.01253  -0.83757 
 C                    -1.45274   0.33023   0.0094 
 H                     2.27459  -0.58588   1.30512 
 H                     1.08044  -1.76131  -0.1832 
 H                     0.19288   0.91741  -1.24755 
 H                    -0.51383  -0.63364  -1.68518 
 H                    -1.17413   0.95077   0.86239 
 H                    -2.18438   0.8814   -0.58327 
 H                    -1.92954  -0.57576   0.38654 
 
 NAtoms=     12 NQM=       12 NQMF=       0 NMMI=      0 NMMIF=      0
                NMic=       0 NMicF=      0.
                    Isotopes and Nuclear Properties:
 (Nuclear quadrupole moments (NQMom) in fm**2, nuclear magnetic moments (NMagM)
  in nuclear magnetons)

  Atom         1           2           3           4           5           6           7           8           9          10
 IAtWgt=          14          14          12          12          12           1           1           1           1           1
 AtmWgt=  14.0030740  14.0030740  12.0000000  12.0000000  12.0000000   1.0078250   1.0078250   1.0078250   1.0078250   1.0078250
 NucSpn=           2           2           0           0           0           1           1           1           1           1
 AtZEff=   0.0000000   0.0000000   0.0000000   0.0000000   0.0000000   0.0000000   0.0000000   0.0000000   0.0000000   0.0000000
 NQMom=    2.0440000   2.0440000   0.0000000   0.0000000   0.0000000   0.0000000   0.0000000   0.0000000   0.0000000   0.0000000
 NMagM=    0.4037610   0.4037610   0.0000000   0.0000000   0.0000000   2.7928460   2.7928460   2.7928460   2.7928460   2.7928460
 AtZNuc=   7.0000000   7.0000000   6.0000000   6.0000000   6.0000000   1.0000000   1.0000000   1.0000000   1.0000000   1.0000000

  Atom        11          12
 IAtWgt=           1           1
 AtmWgt=   1.0078250   1.0078250
 NucSpn=           1           1
 AtZEff=   0.0000000   0.0000000
 NQMom=    0.0000000   0.0000000
 NMagM=    2.7928460   2.7928460
 AtZNuc=   1.0000000   1.0000000
 Leave Link  101 at Wed Jun 18 07:44:10 2025, MaxMem=  4294967296 cpu:         1.2
 (Enter /usr/local/g09/l103.exe)

 GradGradGradGradGradGradGradGradGradGradGradGradGradGradGradGradGradGrad
 Berny optimization.
 Initialization pass.
 Trust Radius=3.00D-01 FncErr=1.00D-07 GrdErr=1.00D-07
 Number of steps in this run=      2 maximum allowed number of steps=      2.
 GradGradGradGradGradGradGradGradGradGradGradGradGradGradGradGradGradGrad

 Leave Link  103 at Wed Jun 18 07:44:10 2025, MaxMem=  4294967296 cpu:         0.1
 (Enter /usr/local/g09/l202.exe)
                          Input orientation:                          
 ---------------------------------------------------------------------
 Center     Atomic      Atomic             Coordinates (Angstroms)
 Number     Number       Type             X           Y           Z
 ---------------------------------------------------------------------
      1          7           0        1.503509    1.181696    1.176668
      2          7           0        1.558026   -0.051119    0.812490
      3          6           0        0.848246   -0.713718   -0.080418
      4          6           0       -0.221239   -0.012531   -0.837574
      5          6           0       -1.452743    0.330226    0.009404
      6          1           0        2.274585   -0.585879    1.305124
      7          1           0        1.080436   -1.761307   -0.183196
      8          1           0        0.192884    0.917407   -1.247550
      9          1           0       -0.513829   -0.633641   -1.685178
     10          1           0       -1.174130    0.950768    0.862394
     11          1           0       -2.184383    0.881402   -0.583268
     12          1           0       -1.929537   -0.575756    0.386536
 ---------------------------------------------------------------------
                    Distance matrix (angstroms):
                    1          2          3          4          5
     1  N    0.000000
     2  N    1.286635   0.000000
     3  C    2.366903   1.319132   0.000000
     4  C    2.908282   2.426929   1.486185   0.000000
     5  C    3.290430   3.139284   2.528327   1.533446   0.000000
     6  H    1.932713   1.020840   1.992614   3.339015   4.051063
     7  H    3.269478   2.035737   1.077923   2.276134   3.290684
     8  H    2.768469   2.654321   2.110039   1.097435   2.152395
     9  H    3.944016   3.297008   2.106399   1.090788   2.163841
    10  H    2.705891   2.910489   2.783777   2.173899   1.091004
    11  H    4.097328   4.101629   3.463251   2.172032   1.091033
    12  H    3.936845   3.552432   2.820134   2.175764   1.091038
                    6          7          8          9         10
     6  H    0.000000
     7  H    2.241142   0.000000
     8  H    3.620703   3.015975   0.000000
     9  H    4.088941   2.463587   1.759748   0.000000
    10  H    3.801438   3.678543   2.514300   3.071884   0.000000
    11  H    5.059776   4.219362   2.468596   2.510042   1.765039
    12  H    4.303318   3.284823   3.066667   2.509896   1.768433
                   11         12
    11  H    0.000000
    12  H    1.768835   0.000000
 Stoichiometry    C3H7N2(2)
 Framework group  C1[X(C3H7N2)]
 Deg. of freedom    30
 Full point group                 C1      NOp   1
 Largest Abelian subgroup         C1      NOp   1
 Largest concise Abelian subgroup C1      NOp   1
                         Standard orientation:                         
 ---------------------------------------------------------------------
 Center     Atomic      Atomic             Coordinates (Angstroms)
 Number     Number       Type             X           Y           Z
 ---------------------------------------------------------------------
      1          7           0        1.507860   -1.030328    0.252685
      2          7           0        1.334985    0.167760   -0.183356
      3          6           0        0.276110    0.953044   -0.136234
      4          6           0       -0.976246    0.462378    0.495905
      5          6           0       -1.703534   -0.608108   -0.326633
      6          1           0        2.164317    0.556481   -0.634152
      7          1           0        0.385619    1.919508   -0.600855
      8          1           0       -0.730122    0.042434    1.479486
      9          1           0       -1.637468    1.312800    0.667327
     10          1           0       -1.052621   -1.464913   -0.506868
     11          1           0       -2.588622   -0.963232    0.203328
     12          1           0       -2.018996   -0.208986   -1.291802
 ---------------------------------------------------------------------
 Rotational constants (GHZ):      9.5264008      3.7417495      3.0499318
 Leave Link  202 at Wed Jun 18 07:44:10 2025, MaxMem=  4294967296 cpu:         0.0
 (Enter /usr/local/g09/l301.exe)
 Standard basis: def2TZVP (5D, 7F)
 Ernie: Thresh=  0.10000D-02 Tol=  0.10000D-05 Strict=F.
 There are   222 symmetry adapted cartesian basis functions of A   symmetry.
 There are   197 symmetry adapted basis functions of A   symmetry.
   197 basis functions,   311 primitive gaussians,   222 cartesian basis functions
    20 alpha electrons       19 beta electrons
       nuclear repulsion energy       170.3055155145 Hartrees.
 IExCor= 4639 DFT=T Ex+Corr=wB97XD ExCW=0 ScaHFX=  1.000000
 ScaDFX=  1.000000  1.000000  1.000000  1.000000 ScalE2=  1.000000  1.000000
 IRadAn=      5 IRanWt=     -1 IRanGd=            0 ICorTp=0 IEmpDi=121
  HFx wShort=  0.000000 wLong=  0.200000 cFull=  0.222036 cShort=  0.000000 cLong=  0.777964
  DFx wShort=  0.000000 wLong=  0.200000 cFull=  0.000000 cShort=  0.000000 cLong=  1.000000
 NAtoms=   12 NActive=   12 NUniq=   12 SFac= 1.00D+00 NAtFMM=   60 NAOKFM=F Big=F
 Integral buffers will be    131072 words long.
 Raffenetti 2 integral format.
 Two-electron integral symmetry is turned on.
 R6Disp:  Grimme-D2 Dispersion energy=       -0.0048207065 Hartrees.
 Nuclear repulsion after empirical dispersion term =      170.3006948081 Hartrees.
 Leave Link  301 at Wed Jun 18 07:44:10 2025, MaxMem=  4294967296 cpu:         0.8
 (Enter /usr/local/g09/l302.exe)
 NPDir=0 NMtPBC=     1 NCelOv=     1 NCel=       1 NClECP=     1 NCelD=      1
         NCelK=      1 NCelE2=     1 NClLst=     1 CellRange=     0.0.
 One-electron integrals computed using PRISM.
   1 Symmetry operations used in ECPInt.
 ECPInt:  NShTT=    3486 NPrTT=   10284 LenC2=    3464 LenP2D=    8655.
 LDataN:  DoStor=T MaxTD1= 6 Len=  172
 NBasis=   197 RedAO= T EigKep=  2.81D-04  NBF=   197
 NBsUse=   197 1.00D-06 EigRej= -1.00D+00 NBFU=   197
 Precomputing XC quadrature grid using
 IXCGrd= 4 IRadAn=           5 IRanWt=          -1 IRanGd=           0 AccXCQ= 0.00D+00.
 Generated NRdTot=       0 NPtTot=           0 NUsed=           0 NTot=          32
 NSgBfM=   221   221   221   221   221 MxSgAt=    12 MxSgA2=    12.
 Leave Link  302 at Wed Jun 18 07:44:11 2025, MaxMem=  4294967296 cpu:         5.0
 (Enter /usr/local/g09/l303.exe)
 DipDrv:  MaxL=1.
 Leave Link  303 at Wed Jun 18 07:44:11 2025, MaxMem=  4294967296 cpu:         0.5
 (Enter /usr/local/g09/l401.exe)
 Initial guess from the checkpoint file:  "check.chk"
 B after Tr=     0.000000    0.000000    0.000000
         Rot=    1.000000    0.000000    0.000000    0.000000 Ang=   0.00 deg.
 Guess basis will be translated and rotated to current coordinates.
 JPrj=2 DoOrth=T DoCkMO=T.
 Initial guess <Sx>= 0.0000 <Sy>= 0.0000 <Sz>= 0.5000 <S**2>= 0.8364 S= 0.5423
 Leave Link  401 at Wed Jun 18 07:44:12 2025, MaxMem=  4294967296 cpu:         5.6
 (Enter /usr/local/g09/l502.exe)
 UHF open shell SCF:
 Using DIIS extrapolation, IDIIS=  1040.
 Integral symmetry usage will be decided dynamically.
 Keep R1 and R2 ints in memory in canonical form, NReq=766487510.
 IVT=      169814 IEndB=      169814 NGot=  4294967296 MDV=  3534024459
 LenX=  3534024459 LenY=  3533974734
 Requested convergence on RMS density matrix=1.00D-08 within 128 cycles.
 Requested convergence on MAX density matrix=1.00D-06.
 Requested convergence on             energy=1.00D-06.
 No special actions if energy rises.
 FoFCou: FMM=F IPFlag=           0 FMFlag=           0 FMFlg1=           0
         NFxFlg=           0 DoJE=F BraDBF=F KetDBF=F FulRan=T
         wScrn=  0.000000 ICntrl=     600 IOpCl=  0 I1Cent=           0 NGrid=           0
         NMat0=    1 NMatS0=  19503 NMatT0=    0 NMatD0=    1 NMtDS0=    0 NMtDT0=    0
 Symmetry not used in FoFCou.

 Cycle   1  Pass 1  IDiag  1:
 E= -227.913944469211    
 DIIS: error= 4.74D-08 at cycle   1 NSaved=   1.
 NSaved= 1 IEnMin= 1 EnMin= -227.913944469211     IErMin= 1 ErrMin= 4.74D-08
 ErrMax= 4.74D-08  0.00D+00 EMaxC= 1.00D-01 BMatC= 2.22D-12 BMatP= 2.22D-12
 IDIUse=1 WtCom= 1.00D+00 WtEn= 0.00D+00
 Coeff-Com:  0.100D+01
 Coeff:      0.100D+01
 Gap=     0.335 Goal=   None    Shift=    0.000
 Gap=     0.257 Goal=   None    Shift=    0.000
 RMSDP=5.91D-09 MaxDP=1.57D-07              OVMax= 1.41D-06

 SCF Done:  E(UwB97XD) =  -227.913944469     A.U. after    1 cycles
            NFock=  1  Conv=0.59D-08     -V/T= 2.0047
 <Sx>= 0.0000 <Sy>= 0.0000 <Sz>= 0.5000 <S**2>= 0.8364 S= 0.5423
 <L.S>= 0.000000000000E+00
 KE= 2.268426638964D+02 PE=-8.707411522425D+02 EE= 2.456838490688D+02
 Annihilation of the first spin contaminant:
 S**2 before annihilation     0.8364,   after     0.7508
 Leave Link  502 at Wed Jun 18 07:44:24 2025, MaxMem=  4294967296 cpu:        86.0
 (Enter /usr/local/g09/l801.exe)
 DoSCS=F DFT=T ScalE2(SS,OS)=  1.000000  1.000000
 Range of M.O.s used for correlation:     1   197
 NBasis=   197 NAE=    20 NBE=    19 NFC=     0 NFV=     0
 NROrb=    197 NOA=    20 NOB=    19 NVA=   177 NVB=   178

 **** Warning!!: The largest alpha MO coefficient is  0.16487068D+02


 **** Warning!!: The largest beta MO coefficient is  0.16276950D+02

 Leave Link  801 at Wed Jun 18 07:44:24 2025, MaxMem=  4294967296 cpu:         0.1
 (Enter /usr/local/g09/l1101.exe)
 Using compressed storage, NAtomX=    12.
 Will process     13 centers per pass.
   1 Symmetry operations used in ECPInt.
 ECPInt:  NShTT=    3486 NPrTT=   10284 LenC2=    3464 LenP2D=    8655.
 LDataN:  DoStor=T MaxTD1= 7 Len=  274
 R6Disp: Adding Grimme-D2 dispersion energy 1st derivatives to the gradient.
 Leave Link 1101 at Wed Jun 18 07:44:26 2025, MaxMem=  4294967296 cpu:         8.4
 (Enter /usr/local/g09/l1102.exe)
 Symmetrizing basis deriv contribution to polar:
 IMax=3 JMax=2 DiffMx= 0.00D+00
 Leave Link 1102 at Wed Jun 18 07:44:26 2025, MaxMem=  4294967296 cpu:         0.5
 (Enter /usr/local/g09/l1110.exe)
 Forming Gx(P) for the SCF density, NAtomX=    12.
 Integral derivatives from FoFJK, PRISM(SPDF).
 Do as many integral derivatives as possible in FoFJK.
 G2DrvN: MDV=    4294967096.
 G2DrvN: will do    13 centers at a time, making    1 passes.
 Calling FoFCou, ICntrl=  3107 FMM=F I1Cent=   0 AccDes= 1.00D-12.
 FoFJK:  IHMeth= 1 ICntrl=    3107 DoSepK=T KAlg= 0 I1Cent=   0 FoldK=F
 IRaf=         1 NMat=   1 IRICut=       1 DoRegI=T DoRafI=F ISym2E= 0.
 FoFCou: FMM=F IPFlag=           0 FMFlag=      100000 FMFlg1=           0
         NFxFlg=           0 DoJE=F BraDBF=F KetDBF=F FulRan=T
         wScrn=  0.000000 ICntrl=    3507 IOpCl=  0 I1Cent=           0 NGrid=           0
         NMat0=    1 NMatS0=      1 NMatT0=    0 NMatD0=    1 NMtDS0=    0 NMtDT0=    0
 Symmetry not used in FoFCou.
 End of G2Drv F.D. properties file   721 does not exist.
 End of G2Drv F.D. properties file   722 does not exist.
 End of G2Drv F.D. properties file   788 does not exist.
 Leave Link 1110 at Wed Jun 18 07:46:49 2025, MaxMem=  4294967296 cpu:      1066.5
 (Enter /usr/local/g09/l1002.exe)
 Minotr:  UHF open shell wavefunction.
          IDoAtm=111111111111
          Direct CPHF calculation.
          Differentiating once with respect to electric field.
                with respect to dipole field.
          Differentiating once with respect to nuclear coordinates.
          Requested convergence is 1.0D-08 RMS, and 1.0D-07 maximum.
          Secondary convergence is 1.0D-12 RMS, and 1.0D-12 maximum.
          NewPWx=T KeepS1=F KeepF1=F KeepIn=T MapXYZ=F SortEE=F KeepMc=T.
          MDV=    4294966778 using IRadAn=       1.
 Generate precomputed XC quadrature information.
 Keep R1 and R2 ints in memory in canonical form, NReq=766323473.
 FoFCou: FMM=F IPFlag=           0 FMFlag=           0 FMFlg1=           0
         NFxFlg=           0 DoJE=F BraDBF=F KetDBF=F FulRan=T
         wScrn=  0.000000 ICntrl=     600 IOpCl=  0 I1Cent=           0 NGrid=           0
         NMat0=    1 NMatS0=  19503 NMatT0=    0 NMatD0=    1 NMtDS0=    0 NMtDT0=    0
 Symmetry not used in FoFCou.
          Solving linear equations simultaneously, MaxMat=       0.
          There are    39 degrees of freedom in the 1st order CPHF.  IDoFFX=6 NUNeed=     3.
     36 vectors produced by pass  0 Test12= 1.77D-14 2.56D-09 XBig12= 5.73D+01 3.49D+00.
 AX will form    36 AO Fock derivatives at one time.
     36 vectors produced by pass  1 Test12= 1.77D-14 2.56D-09 XBig12= 5.47D+00 3.75D-01.
     36 vectors produced by pass  2 Test12= 1.77D-14 2.56D-09 XBig12= 2.17D-01 9.90D-02.
     36 vectors produced by pass  3 Test12= 1.77D-14 2.56D-09 XBig12= 6.17D-03 1.84D-02.
     36 vectors produced by pass  4 Test12= 1.77D-14 2.56D-09 XBig12= 8.55D-05 1.98D-03.
     36 vectors produced by pass  5 Test12= 1.77D-14 2.56D-09 XBig12= 8.32D-07 1.23D-04.
     36 vectors produced by pass  6 Test12= 1.77D-14 2.56D-09 XBig12= 7.82D-09 9.48D-06.
     19 vectors produced by pass  7 Test12= 1.77D-14 2.56D-09 XBig12= 7.08D-11 9.30D-07.
      4 vectors produced by pass  8 Test12= 1.77D-14 2.56D-09 XBig12= 5.81D-13 8.57D-08.
      3 vectors produced by pass  9 Test12= 1.77D-14 2.56D-09 XBig12= 4.69D-15 7.64D-09.
 InvSVY:  IOpt=1 It=  1 EMax= 2.66D-15
 Solved reduced A of dimension   278 with    39 vectors.
 FullF1:  Do perturbations    1 to     3.
 Isotropic polarizability for W=    0.000000       55.34 Bohr**3.
 End of Minotr F.D. properties file   721 does not exist.
 End of Minotr F.D. properties file   722 does not exist.
 End of Minotr F.D. properties file   788 does not exist.
 Leave Link 1002 at Wed Jun 18 07:50:10 2025, MaxMem=  4294967296 cpu:      1511.5
 (Enter /usr/local/g09/l601.exe)
 Copying SCF densities to generalized density rwf, IOpCl= 1 IROHF=0.

 **********************************************************************

            Population analysis using the SCF density.

 **********************************************************************

 Orbital symmetries:
 Alpha Orbitals:
       Occupied  (A) (A) (A) (A) (A) (A) (A) (A) (A) (A) (A) (A)
                 (A) (A) (A) (A) (A) (A) (A) (A)
       Virtual   (A) (A) (A) (A) (A) (A) (A) (A) (A) (A) (A) (A)
                 (A) (A) (A) (A) (A) (A) (A) (A) (A) (A) (A) (A)
                 (A) (A) (A) (A) (A) (A) (A) (A) (A) (A) (A) (A)
                 (A) (A) (A) (A) (A) (A) (A) (A) (A) (A) (A) (A)
                 (A) (A) (A) (A) (A) (A) (A) (A) (A) (A) (A) (A)
                 (A) (A) (A) (A) (A) (A) (A) (A) (A) (A) (A) (A)
                 (A) (A) (A) (A) (A) (A) (A) (A) (A) (A) (A) (A)
                 (A) (A) (A) (A) (A) (A) (A) (A) (A) (A) (A) (A)
                 (A) (A) (A) (A) (A) (A) (A) (A) (A) (A) (A) (A)
                 (A) (A) (A) (A) (A) (A) (A) (A) (A) (A) (A) (A)
                 (A) (A) (A) (A) (A) (A) (A) (A) (A) (A) (A) (A)
                 (A) (A) (A) (A) (A) (A) (A) (A) (A) (A) (A) (A)
                 (A) (A) (A) (A) (A) (A) (A) (A) (A) (A) (A) (A)
                 (A) (A) (A) (A) (A) (A) (A) (A) (A) (A) (A) (A)
                 (A) (A) (A) (A) (A) (A) (A) (A) (A)
 Beta  Orbitals:
       Occupied  (A) (A) (A) (A) (A) (A) (A) (A) (A) (A) (A) (A)
                 (A) (A) (A) (A) (A) (A) (A)
       Virtual   (A) (A) (A) (A) (A) (A) (A) (A) (A) (A) (A) (A)
                 (A) (A) (A) (A) (A) (A) (A) (A) (A) (A) (A) (A)
                 (A) (A) (A) (A) (A) (A) (A) (A) (A) (A) (A) (A)
                 (A) (A) (A) (A) (A) (A) (A) (A) (A) (A) (A) (A)
                 (A) (A) (A) (A) (A) (A) (A) (A) (A) (A) (A) (A)
                 (A) (A) (A) (A) (A) (A) (A) (A) (A) (A) (A) (A)
                 (A) (A) (A) (A) (A) (A) (A) (A) (A) (A) (A) (A)
                 (A) (A) (A) (A) (A) (A) (A) (A) (A) (A) (A) (A)
                 (A) (A) (A) (A) (A) (A) (A) (A) (A) (A) (A) (A)
                 (A) (A) (A) (A) (A) (A) (A) (A) (A) (A) (A) (A)
                 (A) (A) (A) (A) (A) (A) (A) (A) (A) (A) (A) (A)
                 (A) (A) (A) (A) (A) (A) (A) (A) (A) (A) (A) (A)
                 (A) (A) (A) (A) (A) (A) (A) (A) (A) (A) (A) (A)
                 (A) (A) (A) (A) (A) (A) (A) (A) (A) (A) (A) (A)
                 (A) (A) (A) (A) (A) (A) (A) (A) (A) (A)
 The electronic state is 2-A.
 Alpha  occ. eigenvalues --  -14.55014 -14.45722 -10.31258 -10.29211 -10.27109
 Alpha  occ. eigenvalues --   -1.15563  -0.91619  -0.86164  -0.75676  -0.69627
 Alpha  occ. eigenvalues --   -0.61849  -0.54516  -0.52784  -0.52289  -0.49216
 Alpha  occ. eigenvalues --   -0.45684  -0.44014  -0.42728  -0.35659  -0.28219
 Alpha virt. eigenvalues --    0.05321   0.09785   0.13115   0.16056   0.16575
 Alpha virt. eigenvalues --    0.19316   0.19688   0.21451   0.22787   0.25439
 Alpha virt. eigenvalues --    0.27524   0.29303   0.31535   0.31909   0.33797
 Alpha virt. eigenvalues --    0.35176   0.37302   0.39130   0.41092   0.43997
 Alpha virt. eigenvalues --    0.46830   0.47579   0.48255   0.48587   0.49341
 Alpha virt. eigenvalues --    0.50978   0.51253   0.52685   0.53696   0.55160
 Alpha virt. eigenvalues --    0.57197   0.58927   0.59989   0.62106   0.65179
 Alpha virt. eigenvalues --    0.65763   0.68303   0.72073   0.78055   0.82624
 Alpha virt. eigenvalues --    0.85937   0.88904   0.93758   0.95204   0.98796
 Alpha virt. eigenvalues --    1.02944   1.06757   1.07503   1.13103   1.15402
 Alpha virt. eigenvalues --    1.17704   1.19150   1.23243   1.24489   1.26993
 Alpha virt. eigenvalues --    1.31928   1.34460   1.40181   1.48419   1.50345
 Alpha virt. eigenvalues --    1.55094   1.58034   1.59383   1.61309   1.62189
 Alpha virt. eigenvalues --    1.63528   1.65798   1.68776   1.69598   1.73684
 Alpha virt. eigenvalues --    1.75110   1.76436   1.80892   1.83353   1.87039
 Alpha virt. eigenvalues --    1.88905   1.92394   1.95355   2.02211   2.06008
 Alpha virt. eigenvalues --    2.07118   2.08811   2.13659   2.19684   2.22083
 Alpha virt. eigenvalues --    2.23818   2.24820   2.30035   2.34713   2.39484
 Alpha virt. eigenvalues --    2.40566   2.43135   2.45188   2.46828   2.48315
 Alpha virt. eigenvalues --    2.56806   2.58942   2.62830   2.66796   2.68389
 Alpha virt. eigenvalues --    2.71432   2.72285   2.73684   2.75306   2.76170
 Alpha virt. eigenvalues --    2.85202   2.89953   2.91665   2.92555   2.96912
 Alpha virt. eigenvalues --    2.99054   3.01709   3.12462   3.15393   3.17168
 Alpha virt. eigenvalues --    3.18948   3.20347   3.24239   3.29194   3.33622
 Alpha virt. eigenvalues --    3.34326   3.35709   3.42112   3.45320   3.46566
 Alpha virt. eigenvalues --    3.48958   3.53941   3.57210   3.63388   3.64833
 Alpha virt. eigenvalues --    3.66966   3.73361   3.77474   3.80181   3.89231
 Alpha virt. eigenvalues --    3.90932   3.93695   3.95862   4.00224   4.03597
 Alpha virt. eigenvalues --    4.06256   4.08034   4.14589   4.20068   4.21730
 Alpha virt. eigenvalues --    4.36074   4.39325   4.45686   4.47851   4.53413
 Alpha virt. eigenvalues --    4.55899   4.58108   4.62722   4.66619   4.67598
 Alpha virt. eigenvalues --    4.75284   4.78260   4.81062   4.82417   4.89656
 Alpha virt. eigenvalues --    4.97193   5.01932   5.10504   5.14681   5.26766
 Alpha virt. eigenvalues --    5.33911   5.46589   5.61483   5.86932   6.07964
 Alpha virt. eigenvalues --    6.21540   6.97247  22.42005  22.55957  22.78038
 Alpha virt. eigenvalues --   31.68336  32.34005
  Beta  occ. eigenvalues --  -14.55038 -14.43652 -10.31483 -10.29184 -10.27133
  Beta  occ. eigenvalues --   -1.13666  -0.90255  -0.84724  -0.75045  -0.68624
  Beta  occ. eigenvalues --   -0.61444  -0.54089  -0.52490  -0.51315  -0.46966
  Beta  occ. eigenvalues --   -0.45364  -0.43618  -0.42639  -0.25953
  Beta virt. eigenvalues --   -0.00288   0.06092   0.10193   0.13223   0.16002
  Beta virt. eigenvalues --    0.16601   0.19443   0.19658   0.21591   0.22847
  Beta virt. eigenvalues --    0.25654   0.27777   0.29322   0.31719   0.31897
  Beta virt. eigenvalues --    0.33696   0.35717   0.37565   0.39201   0.42179
  Beta virt. eigenvalues --    0.44198   0.46887   0.48141   0.48588   0.49273
  Beta virt. eigenvalues --    0.49739   0.51273   0.51534   0.52691   0.54935
  Beta virt. eigenvalues --    0.55889   0.57401   0.59500   0.60082   0.62583
  Beta virt. eigenvalues --    0.65271   0.66146   0.68939   0.72068   0.78803
  Beta virt. eigenvalues --    0.82667   0.85943   0.88927   0.93831   0.95154
  Beta virt. eigenvalues --    0.98674   1.03316   1.06892   1.07903   1.14337
  Beta virt. eigenvalues --    1.15489   1.17828   1.20397   1.23957   1.25449
  Beta virt. eigenvalues --    1.28173   1.32953   1.34570   1.41577   1.48938
  Beta virt. eigenvalues --    1.51204   1.55654   1.57727   1.59600   1.61816
  Beta virt. eigenvalues --    1.62371   1.63508   1.65827   1.69119   1.70178
  Beta virt. eigenvalues --    1.73882   1.75714   1.76793   1.81365   1.83676
  Beta virt. eigenvalues --    1.87124   1.89189   1.92559   1.95534   2.02313
  Beta virt. eigenvalues --    2.06330   2.07314   2.12941   2.14213   2.20202
  Beta virt. eigenvalues --    2.22646   2.25639   2.28349   2.30297   2.34797
  Beta virt. eigenvalues --    2.40385   2.40605   2.43345   2.45349   2.47305
  Beta virt. eigenvalues --    2.48451   2.56983   2.59118   2.62954   2.67065
  Beta virt. eigenvalues --    2.68529   2.71690   2.73145   2.74930   2.75453
  Beta virt. eigenvalues --    2.76229   2.85265   2.90040   2.91984   2.92477
  Beta virt. eigenvalues --    2.96768   2.98799   3.01418   3.12466   3.15404
  Beta virt. eigenvalues --    3.17103   3.18971   3.20359   3.24293   3.29106
  Beta virt. eigenvalues --    3.33207   3.34496   3.35970   3.42116   3.45151
  Beta virt. eigenvalues --    3.46655   3.48953   3.53949   3.57256   3.63532
  Beta virt. eigenvalues --    3.65172   3.67590   3.73715   3.78045   3.80607
  Beta virt. eigenvalues --    3.90423   3.91333   3.94912   3.99265   4.04263
  Beta virt. eigenvalues --    4.06685   4.08397   4.09748   4.15748   4.20917
  Beta virt. eigenvalues --    4.22447   4.36561   4.42313   4.46838   4.48909
  Beta virt. eigenvalues --    4.56493   4.58049   4.59736   4.64320   4.67742
  Beta virt. eigenvalues --    4.74769   4.77341   4.80206   4.82148   4.83776
  Beta virt. eigenvalues --    4.89850   4.98841   5.03413   5.13355   5.16479
  Beta virt. eigenvalues --    5.27098   5.35463   5.47006   5.62262   5.88235
  Beta virt. eigenvalues --    6.08907   6.23907   6.99103  22.41975  22.55982
  Beta virt. eigenvalues --   22.77703  31.71296  32.33995
          Condensed to atoms (all electrons):
               1          2          3          4          5          6
     1  N    7.314553   0.138660  -0.108306   0.017651  -0.007987  -0.035430
     2  N    0.138660   6.109724   0.424735  -0.046494   0.008358   0.359963
     3  C   -0.108306   0.424735   5.364517   0.283117  -0.082579  -0.054796
     4  C    0.017651  -0.046494   0.283117   4.900158   0.327029   0.010765
     5  C   -0.007987   0.008358  -0.082579   0.327029   4.957813  -0.001495
     6  H   -0.035430   0.359963  -0.054796   0.010765  -0.001495   0.469336
     7  H    0.004457  -0.033314   0.412490  -0.024131  -0.001291  -0.008329
     8  H    0.011797  -0.011598  -0.034771   0.407383  -0.052475   0.000031
     9  H    0.001142   0.003893  -0.037716   0.406417  -0.031196  -0.000104
    10  H    0.010787  -0.001213  -0.010837  -0.030215   0.418414   0.000240
    11  H    0.000258  -0.000291   0.010193  -0.041479   0.411023   0.000045
    12  H   -0.000521   0.000202   0.004172  -0.037114   0.398254   0.000021
               7          8          9         10         11         12
     1  N    0.004457   0.011797   0.001142   0.010787   0.000258  -0.000521
     2  N   -0.033314  -0.011598   0.003893  -0.001213  -0.000291   0.000202
     3  C    0.412490  -0.034771  -0.037716  -0.010837   0.010193   0.004172
     4  C   -0.024131   0.407383   0.406417  -0.030215  -0.041479  -0.037114
     5  C   -0.001291  -0.052475  -0.031196   0.418414   0.411023   0.398254
     6  H   -0.008329   0.000031  -0.000104   0.000240   0.000045   0.000021
     7  H    0.502112   0.004428  -0.005318  -0.000064  -0.000176   0.000575
     8  H    0.004428   0.579612  -0.019935  -0.005182  -0.003774   0.007880
     9  H   -0.005318  -0.019935   0.584904   0.005229  -0.003444  -0.004655
    10  H   -0.000064  -0.005182   0.005229   0.517789  -0.021392  -0.024728
    11  H   -0.000176  -0.003774  -0.003444  -0.021392   0.556336  -0.023606
    12  H    0.000575   0.007880  -0.004655  -0.024728  -0.023606   0.575840
          Atomic-Atomic Spin Densities.
               1          2          3          4          5          6
     1  N    1.292015  -0.075576  -0.030887   0.026279  -0.008431  -0.029032
     2  N   -0.075576  -0.019229   0.060838  -0.001499  -0.004269   0.020141
     3  C   -0.030887   0.060838  -0.214536  -0.035379   0.032194  -0.034750
     4  C    0.026279  -0.001499  -0.035379   0.036312  -0.017026   0.005849
     5  C   -0.008431  -0.004269   0.032194  -0.017026  -0.022984  -0.000575
     6  H   -0.029032   0.020141  -0.034750   0.005849  -0.000575   0.092347
     7  H    0.000465   0.001850  -0.004400   0.002216   0.000741   0.001544
     8  H   -0.003369   0.000123   0.007261   0.001052   0.010337  -0.000066
     9  H    0.000395  -0.000060  -0.000282   0.000669   0.002110   0.000076
    10  H    0.000635  -0.000210   0.000145  -0.000749   0.001142   0.000096
    11  H    0.000414   0.000078  -0.001611   0.001366   0.000111   0.000016
    12  H    0.000259   0.000462  -0.004189   0.001323   0.002851   0.000021
               7          8          9         10         11         12
     1  N    0.000465  -0.003369   0.000395   0.000635   0.000414   0.000259
     2  N    0.001850   0.000123  -0.000060  -0.000210   0.000078   0.000462
     3  C   -0.004400   0.007261  -0.000282   0.000145  -0.001611  -0.004189
     4  C    0.002216   0.001052   0.000669  -0.000749   0.001366   0.001323
     5  C    0.000741   0.010337   0.002110   0.001142   0.000111   0.002851
     6  H    0.001544  -0.000066   0.000076   0.000096   0.000016   0.000021
     7  H    0.009418  -0.000587  -0.000331   0.000046  -0.000001  -0.000122
     8  H   -0.000587  -0.019790  -0.002432   0.000121  -0.000910  -0.000670
     9  H   -0.000331  -0.002432  -0.001671  -0.000084   0.000012  -0.000273
    10  H    0.000046   0.000121  -0.000084  -0.001934   0.000329  -0.000030
    11  H   -0.000001  -0.000910   0.000012   0.000329  -0.000343  -0.000395
    12  H   -0.000122  -0.000670  -0.000273  -0.000030  -0.000395  -0.000347
 Mulliken charges and spin densities:
               1          2
     1  N   -0.347062   1.173166
     2  N    0.047374  -0.017351
     3  C   -0.170218  -0.225597
     4  C   -0.173087   0.020413
     5  C   -0.343868  -0.003799
     6  H    0.259755   0.055667
     7  H    0.148562   0.010840
     8  H    0.116605  -0.008931
     9  H    0.100783  -0.001872
    10  H    0.141172  -0.000493
    11  H    0.116306  -0.000934
    12  H    0.103679  -0.001109
 Sum of Mulliken charges =   0.00000   1.00000
 Mulliken charges and spin densities with hydrogens summed into heavy atoms:
               1          2
     1  N   -0.347062   1.173166
     2  N    0.307128   0.038316
     3  C   -0.021656  -0.214757
     4  C    0.044301   0.009610
     5  C    0.017289  -0.006335
 APT charges:
               1
     1  N   -0.513620
     2  N    0.448824
     3  C   -0.306442
     4  C    0.144868
     5  C    0.032994
     6  H    0.209717
     7  H    0.059239
     8  H   -0.035394
     9  H   -0.013315
    10  H    0.009646
    11  H   -0.019343
    12  H   -0.017176
 Sum of APT charges =   0.00000
 APT charges with hydrogens summed into heavy atoms:
               1
     1  N   -0.513620
     2  N    0.658541
     3  C   -0.247203
     4  C    0.096159
     5  C    0.006122
 Electronic spatial extent (au):  <R**2>=            447.1703
 Charge=              0.0000 electrons
 Dipole moment (field-independent basis, Debye):
    X=             -0.1004    Y=              2.7242    Z=             -1.1642  Tot=              2.9643
 Quadrupole moment (field-independent basis, Debye-Ang):
   XX=            -28.6435   YY=            -33.4131   ZZ=            -32.1782
   XY=              4.4114   XZ=             -3.5655   YZ=             -0.6266
 Traceless Quadrupole moment (field-independent basis, Debye-Ang):
   XX=              2.7681   YY=             -2.0015   ZZ=             -0.7666
   XY=              4.4114   XZ=             -3.5655   YZ=             -0.6266
 Octapole moment (field-independent basis, Debye-Ang**2):
  XXX=             11.9570  YYY=              7.4938  ZZZ=             -0.7975  XYY=             -3.0481
  XXY=              9.6276  XXZ=             -6.2684  XZZ=              0.9294  YZZ=              1.0125
  YYZ=             -2.8317  XYZ=             -0.3620
 Hexadecapole moment (field-independent basis, Debye-Ang**3):
 XXXX=           -347.3003 YYYY=           -158.8636 ZZZZ=            -73.2365 XXXY=             18.3578
 XXXZ=            -20.0604 YYYX=              7.0328 YYYZ=             -3.6093 ZZZX=             -3.6769
 ZZZY=             -0.8618 XXYY=            -93.8110 XXZZ=            -73.2111 YYZZ=            -40.0800
 XXYZ=             -2.4021 YYXZ=             -4.7109 ZZXY=              2.3530
 N-N= 1.703006948081D+02 E-N=-8.707411527960D+02  KE= 2.268426638964D+02
  Exact polarizability:  62.983  -9.935  60.686   0.302  -3.907  42.357
 Approx polarizability:  62.922 -15.619  72.918   0.940  -6.436  47.124
                          Isotropic Fermi Contact Couplings
        Atom                 a.u.       MegaHertz       Gauss      10(-4) cm-1
     1  N(14)              0.10134      32.74322      11.68359      10.92196
     2  N(14)             -0.04218     -13.62739      -4.86259      -4.54561
     3  C(13)              0.03422      38.46844      13.72650      12.83169
     4  C(13)              0.00730       8.20748       2.92863       2.73772
     5  C(13)             -0.01458     -16.38753      -5.84748      -5.46629
     6  H(1)               0.03088     138.04432      49.25764      46.04663
     7  H(1)               0.00382      17.08559       6.09656       5.69914
     8  H(1)              -0.00325     -14.51800      -5.18038      -4.84268
     9  H(1)              -0.00070      -3.14215      -1.12120      -1.04811
    10  H(1)               0.00067       3.01025       1.07413       1.00411
    11  H(1)              -0.00016      -0.72908      -0.26015      -0.24319
    12  H(1)               0.00018       0.78738       0.28096       0.26264
 --------------------------------------------------------
       Center         ----  Spin Dipole Couplings  ----
                      3XX-RR        3YY-RR        3ZZ-RR
 --------------------------------------------------------
     1   Atom        1.717038     -1.311425     -0.405613
     2   Atom       -0.031681      0.015510      0.016170
     3   Atom        0.124526      0.109209     -0.233735
     4   Atom        0.005084     -0.001143     -0.003941
     5   Atom        0.013915     -0.012270     -0.001645
     6   Atom       -0.011334      0.017937     -0.006603
     7   Atom        0.014127     -0.003871     -0.010257
     8   Atom        0.008030     -0.004230     -0.003801
     9   Atom       -0.000917      0.003016     -0.002099
    10   Atom        0.015995     -0.010504     -0.005491
    11   Atom        0.004394     -0.002420     -0.001974
    12   Atom        0.003119     -0.001288     -0.001831
 --------------------------------------------------------
                        XY            XZ            YZ
 --------------------------------------------------------
     1   Atom        0.280488     -0.748573      0.238412
     2   Atom       -0.005984      0.020755      0.005011
     3   Atom       -0.106513     -0.131355     -0.146453
     4   Atom       -0.011925     -0.002670     -0.002539
     5   Atom       -0.016741     -0.002401     -0.007241
     6   Atom        0.014619     -0.008080     -0.019814
     7   Atom       -0.013175     -0.003085      0.003154
     8   Atom       -0.010912     -0.006532      0.006499
     9   Atom       -0.004077      0.001075      0.000006
    10   Atom        0.002503      0.008389      0.000937
    11   Atom       -0.001455      0.000747     -0.000082
    12   Atom       -0.003284      0.001322     -0.001361
 --------------------------------------------------------


 ---------------------------------------------------------------------------------
              Anisotropic Spin Dipole Couplings in Principal Axis System
 ---------------------------------------------------------------------------------

       Atom             a.u.   MegaHertz   Gauss  10(-4) cm-1        Axes

              Baa    -1.4442   -55.699   -19.875   -18.579 -0.1605  0.9305 -0.3293
     1 N(14)  Bbb    -0.5220   -20.134    -7.184    -6.716  0.2546  0.3614  0.8970
              Bcc     1.9662    75.833    27.059    25.295  0.9536  0.0602 -0.2949
 
              Baa    -0.0404    -1.558    -0.556    -0.520  0.9269  0.1307 -0.3517
     2 N(14)  Bbb     0.0157     0.604     0.216     0.202 -0.2227  0.9460 -0.2354
              Bcc     0.0247     0.954     0.340     0.318  0.3019  0.2966  0.9060
 
              Baa    -0.3433   -46.062   -16.436   -15.365  0.3273  0.3599  0.8737
     3 C(13)  Bbb     0.1196    16.043     5.724     5.351  0.6076  0.6280 -0.4862
              Bcc     0.2237    30.019    10.711    10.013  0.7237 -0.6900  0.0131
 
              Baa    -0.0120    -1.611    -0.575    -0.537  0.5639  0.7156  0.4122
     4 C(13)  Bbb    -0.0023    -0.310    -0.111    -0.103 -0.2277 -0.3451  0.9105
              Bcc     0.0143     1.921     0.685     0.641  0.7938 -0.6073 -0.0317
 
              Baa    -0.0231    -3.099    -1.106    -1.034  0.4065  0.8509  0.3327
     5 C(13)  Bbb     0.0010     0.131     0.047     0.044 -0.1865 -0.2792  0.9420
              Bcc     0.0221     2.968     1.059     0.990  0.8944 -0.4449  0.0452
 
              Baa    -0.0176    -9.416    -3.360    -3.141 -0.1627  0.5302  0.8321
     6 H(1)   Bbb    -0.0173    -9.256    -3.303    -3.087  0.9265 -0.2078  0.3136
              Bcc     0.0350    18.672     6.663     6.228  0.3392  0.8220 -0.4574
 
              Baa    -0.0122    -6.486    -2.314    -2.163 -0.2531 -0.6687  0.6991
     7 H(1)   Bbb    -0.0095    -5.059    -1.805    -1.688  0.4144  0.5780  0.7029
              Bcc     0.0216    11.545     4.120     3.851  0.8742 -0.4677 -0.1308
 
              Baa    -0.0117    -6.249    -2.230    -2.084  0.3264  0.8446 -0.4243
     8 H(1)   Bbb    -0.0064    -3.399    -1.213    -1.134  0.5303  0.2079  0.8219
              Bcc     0.0181     9.648     3.443     3.218  0.7824 -0.4933 -0.3800
 
              Baa    -0.0039    -2.102    -0.750    -0.701  0.7697  0.4517 -0.4511
     9 H(1)   Bbb    -0.0017    -0.896    -0.320    -0.299  0.3458  0.2991  0.8894
              Bcc     0.0056     2.998     1.070     1.000 -0.5366  0.8406 -0.0740
 
              Baa    -0.0107    -5.734    -2.046    -1.913 -0.0751  0.9955 -0.0575
    10 H(1)   Bbb    -0.0084    -4.469    -1.595    -1.491 -0.3281  0.0298  0.9442
              Bcc     0.0191    10.203     3.641     3.404  0.9417  0.0898  0.3244
 
              Baa    -0.0027    -1.454    -0.519    -0.485  0.2095  0.9724 -0.1026
    11 H(1)   Bbb    -0.0020    -1.094    -0.390    -0.365 -0.0868  0.1230  0.9886
              Bcc     0.0048     2.548     0.909     0.850  0.9740 -0.1982  0.1102
 
              Baa    -0.0033    -1.782    -0.636    -0.594  0.3261  0.8263  0.4592
    12 H(1)   Bbb    -0.0020    -1.061    -0.379    -0.354 -0.4196 -0.3088  0.8536
              Bcc     0.0053     2.843     1.015     0.948  0.8471 -0.4711  0.2460
 

 ---------------------------------------------------------------------------------

 No NMR shielding tensors so no spin-rotation constants.
 Leave Link  601 at Wed Jun 18 07:50:11 2025, MaxMem=  4294967296 cpu:         5.4
 (Enter /usr/local/g09/l701.exe)
 Compute integral second derivatives.
 ... and contract with generalized density number  0.
 R6Disp: Adding Grimme-D2 dispersion energy 2nd derivatives to the Hessian.
 Entering OneElI...
 Calculate overlap and kinetic energy integrals
    NBasis = 222  MinDer = 2  MaxDer = 2
 Requested accuracy = 0.1000D-14
 PrsmSu:  NPrtUS=   8 ThrOK=T IAlg=1 NPAlg=1 LenDen=           0.
 Prism:   IPart=     0 DynPar=F LinDyn=F Incr=           4.
 PRISM was handed   536765441 working-precision words and  3477 shell-pairs
 PRISM was handed   536765441 working-precision words and  3477 shell-pairs
 PRISM was handed   536765441 working-precision words and  3477 shell-pairs
 PRISM was handed   536765441 working-precision words and  3477 shell-pairs
 PRISM was handed   536765441 working-precision words and  3477 shell-pairs
 PRISM was handed   536765441 working-precision words and  3477 shell-pairs
 PRISM was handed   536765441 working-precision words and  3477 shell-pairs
 PRISM was handed   536765441 working-precision words and  3477 shell-pairs
 IPart=  0 NShTot=         459 NBatch=          47 AvBLen=         9.8
 IPart=  3 NShTot=         437 NBatch=          42 AvBLen=        10.4
 IPart=  2 NShTot=         441 NBatch=          43 AvBLen=        10.3
 IPart=  7 NShTot=         415 NBatch=          33 AvBLen=        12.6
 IPart=  6 NShTot=         421 NBatch=          35 AvBLen=        12.0
 IPart=  5 NShTot=         422 NBatch=          35 AvBLen=        12.1
 IPart=  1 NShTot=         451 NBatch=          44 AvBLen=        10.3
 IPart=  4 NShTot=         431 NBatch=          39 AvBLen=        11.1
 PrSmSu:  NxtVal=             33.
 Entering OneElI...
 Calculate potential energy integrals
    NBasis = 222  MinDer = 2  MaxDer = 2
 Requested accuracy = 0.1000D-14
 PrsmSu:  NPrtUS=   8 ThrOK=T IAlg=1 NPAlg=1 LenDen=           0.
 Prism:   IPart=     0 DynPar=F LinDyn=F Incr=          51.
 PRISM was handed   536778719 working-precision words and  3415 shell-pairs
 PRISM was handed   536778719 working-precision words and  3415 shell-pairs
 PRISM was handed   536778719 working-precision words and  3415 shell-pairs
 PRISM was handed   536778719 working-precision words and  3415 shell-pairs
 PRISM was handed   536778719 working-precision words and  3415 shell-pairs
 PRISM was handed   536778719 working-precision words and  3415 shell-pairs
 PRISM was handed   536778719 working-precision words and  3415 shell-pairs
 PRISM was handed   536778719 working-precision words and  3415 shell-pairs
 IPart=  6 NShTot=        4980 NBatch=         415 AvBLen=        12.0
 IPart=  1 NShTot=        5304 NBatch=         442 AvBLen=        12.0
 IPart=  0 NShTot=        5364 NBatch=         447 AvBLen=        12.0
 IPart=  7 NShTot=        4860 NBatch=         405 AvBLen=        12.0
 IPart=  2 NShTot=        5208 NBatch=         434 AvBLen=        12.0
 IPart=  5 NShTot=        5028 NBatch=         419 AvBLen=        12.0
 IPart=  3 NShTot=        5136 NBatch=         428 AvBLen=        12.0
 IPart=  4 NShTot=        5100 NBatch=         425 AvBLen=        12.0
 PrSmSu:  NxtVal=            409.
   1 Symmetry operations used in ECPInt.
 ECPInt:  NShTT=    3486 NPrTT=   10284 LenC2=    3464 LenP2D=    8655.
 LDataN:  DoStor=F MaxTD1= 8 Len=  415
 LDataN:  DoStor=T MaxTD1= 8 Len=  415
 ECPSu:  NPrtUS=   8 ThrOK=T
 Polarizability after L701:
                1             2             3 
      1  0.629834D+02
      2 -0.993533D+01  0.606860D+02
      3  0.302185D+00 -0.390679D+01  0.423571D+02
 Dipole Derivatives after L701:
                 1             2             3             4             5 
      1  -0.541134D+00  0.701631D+00 -0.197133D+00  0.509698D+00 -0.914988D+00
      2   0.848519D-01 -0.725322D+00  0.157936D+00 -0.622042D+00  0.873902D+00
      3   0.427692D-01  0.345067D-02 -0.274404D+00  0.926996D-01 -0.135059D+00
                 6             7             8             9            10 
      1   0.183635D+00 -0.228496D+00  0.291928D+00 -0.162305D+00  0.183771D+00
      2  -0.123591D+00  0.448058D+00 -0.488592D+00 -0.183915D+00 -0.297528D-01
      3  -0.371274D-01 -0.239099D+00 -0.445517D-01 -0.202238D+00  0.154880D-01
                11            12            13            14            15 
      1  -0.874266D-01 -0.313075D-01  0.242556D-02  0.859609D-02  0.645737D-01
      2   0.125004D+00  0.633831D-01  0.282029D-01  0.148969D-01 -0.860799D-01
      3   0.225999D-01  0.125831D+00 -0.294401D-02 -0.335135D-01  0.816605D-01
                16            17            18            19            20 
      1   0.203287D+00  0.215137D-01  0.266713D-01  0.598956D-02 -0.209652D-01
      2  -0.130628D-01  0.178213D+00  0.425560D-01 -0.230871D-01  0.302408D-01
      3   0.353629D-01  0.398772D-01  0.247651D+00  0.723862D-01  0.830893D-01
                21            22            23            24            25 
      1   0.911145D-01 -0.361221D-01 -0.312536D-01  0.164378D-01 -0.312704D-01
      2   0.107156D+00  0.456579D-01  0.275983D-01  0.395096D-02  0.712107D-01
      3   0.141487D+00 -0.716719D-01  0.773655D-01 -0.976590D-01  0.259316D-01
                26            27            28            29            30 
      1   0.709196D-01  0.157710D-01  0.978398D-02  0.442247D-01 -0.844143D-02
      2  -0.793603D-01 -0.350002D-01  0.105326D+00 -0.288118D-01 -0.188218D-01
      3  -0.569980D-01  0.706855D-01  0.172037D-01 -0.425805D-01  0.479656D-01
                31            32            33            34            35 
      1  -0.124165D+00 -0.107616D+00  0.844433D-01  0.462320D-01  0.234348D-01
      2  -0.730961D-01  0.610352D-01  0.353549D-01 -0.222667D-01  0.111956D-01
      3   0.572467D-01  0.373061D-02  0.510124D-02 -0.453729D-01  0.825897D-01
                36 
      1  -0.834603D-01
      2   0.370709D-01
      3  -0.108954D+00
 Hessian after L701:
                1             2             3             4             5 
      1  0.818661D+01
      2  0.223513D+01 -0.327667D+00
      3 -0.340132D+00  0.394046D+01  0.936020D+01
      4 -0.947293D+01 -0.162507D+01  0.120942D+00  0.129984D+02
      5 -0.174911D+01  0.836391D+00 -0.417529D+01  0.578155D+01  0.914975D+01
      6  0.177597D+00 -0.419207D+01 -0.932271D+01  0.240122D+01  0.512148D+01
      7  0.344932D+00 -0.655807D-01  0.321355D+00 -0.254950D+01 -0.527280D+01
      8  0.681544D-01 -0.270699D+00  0.245789D+00 -0.544975D+01 -0.552891D+01
      9  0.242910D+00  0.265328D+00  0.561190D+00 -0.106697D+01 -0.387498D+00
     10  0.169156D+00 -0.395390D+00 -0.978478D-01  0.513885D+00 -0.201131D+00
     11 -0.349034D+00 -0.487014D-01  0.378077D-01 -0.924526D-01 -0.209435D+00
     12 -0.263916D-01  0.105544D-01 -0.328436D+00 -0.908297D-01  0.511849D-01
     13  0.275020D+00 -0.887255D-01  0.152731D-01  0.400498D+00  0.164929D+00
     14 -0.154835D+00 -0.149535D+00 -0.939150D-02  0.157729D+00 -0.209534D+00
     15  0.269905D-02  0.481648D-02 -0.194889D+00  0.761692D-01  0.221095D-01
     16  0.190902D+00  0.965903D-01 -0.832066D-01 -0.203474D+01  0.121334D+01
     17  0.486816D-01 -0.421860D-01  0.288329D-01  0.116770D+01 -0.402932D+01
     18 -0.622964D-01  0.953637D-02  0.950713D-01 -0.136918D+01 -0.655790D+00
     19 -0.241891D-01 -0.457911D-01  0.228345D-01 -0.172379D-01  0.955190D-01
     20 -0.698876D-01  0.143985D+00 -0.721178D-01  0.322497D-01  0.252836D-01
     21  0.274557D-01 -0.653962D-01 -0.108991D-01 -0.131301D-01 -0.199168D-01
     22  0.132330D+00 -0.560903D-01 -0.239858D-01 -0.363612D-01 -0.119249D-01
     23 -0.470599D-01 -0.692032D-01 -0.861711D-02  0.116409D-01 -0.161300D-01
     24 -0.106253D+00  0.264850D-01 -0.743047D-01 -0.596350D-01  0.159294D-01
     25  0.383916D-01 -0.469251D-01  0.316179D-03  0.109104D+00 -0.646422D-01
     26 -0.485414D-01  0.213444D-01  0.100143D-02 -0.811153D-01 -0.344072D-02
     27 -0.838051D-02  0.622327D-02 -0.192273D-01 -0.466024D-01  0.213273D-01
     28  0.800616D-01  0.693948D-02  0.401143D-01 -0.466566D-02  0.336983D-01
     29  0.738722D-01 -0.694908D-01  0.206735D-01  0.839021D-01  0.204358D-01
     30  0.637981D-01  0.465276D-02 -0.571191D-01  0.147362D-01  0.101050D-01
     31  0.540375D-01 -0.304365D-02 -0.113786D-03  0.388764D-01  0.680749D-02
     32  0.772190D-02 -0.137903D-01 -0.589212D-03  0.181975D-01 -0.140484D-01
     33 -0.110225D-01  0.124246D-02 -0.146294D-01 -0.149483D-01 -0.218110D-02
     34  0.256742D-01 -0.120475D-01  0.244507D-01  0.547102D-01  0.375714D-02
     35 -0.150962D-01 -0.104473D-01 -0.856156D-02 -0.457841D-02 -0.210389D-01
     36  0.400172D-01 -0.118316D-01  0.575514D-02  0.482160D-01 -0.146305D-02
                6             7             8             9            10 
      6  0.243694D+02
      7 -0.105262D+01  0.769615D+01
      8 -0.369785D+00  0.300810D+01  0.119469D+02
      9 -0.108407D+02  0.235510D+01  0.167458D+01  0.184559D+02
     10 -0.155658D+00 -0.198562D+01  0.169684D+01 -0.171674D+01  0.115061D+02
     11  0.369224D-01  0.155066D+01 -0.498003D+01 -0.703024D+00 -0.110522D+01
     12 -0.163241D+00 -0.171228D+01 -0.735663D+00 -0.515351D+01  0.652222D+00
     13  0.106529D+00  0.283774D+00  0.379438D+00  0.154927D+00 -0.403074D+01
     14  0.175718D-01  0.381116D+00  0.204698D+00  0.121856D+00  0.141987D+01
     15 -0.224697D+00  0.895480D-01  0.100586D+00 -0.405986D-01  0.110642D+01
     16 -0.140342D+01 -0.110832D+00  0.431868D-01  0.802595D-01  0.174449D+00
     17 -0.646835D+00  0.859267D-01  0.145027D+00 -0.371070D-01  0.335454D-01
     18 -0.382621D+01  0.601264D-01 -0.191306D-01  0.117824D+00 -0.867626D-01
     19 -0.401564D-01 -0.372236D+01  0.190030D+00 -0.821537D-01 -0.209172D-01
     20  0.896291D-02  0.225397D+00 -0.152638D+01 -0.977720D+00 -0.562624D-01
     21  0.224001D-01 -0.960339D-01 -0.957043D+00 -0.328904D+01  0.455896D-01
     22 -0.146528D-01 -0.210835D-01 -0.104817D+00  0.312167D-01 -0.368369D+01
     23 -0.744207D-02 -0.591010D-01 -0.629339D-01  0.242369D-01 -0.229919D+00
     24  0.577761D-01 -0.769572D-03  0.577870D-01  0.207570D+00  0.570382D+00
     25 -0.390276D-01 -0.702735D-01  0.396042D-01 -0.541059D-02 -0.274430D+01
     26  0.220030D-01  0.662316D-02  0.573501D-01  0.551585D-02 -0.111690D+01
     27 -0.266325D-01  0.111278D-01 -0.145308D-01  0.496899D-01 -0.320649D+00
     28  0.350433D-02 -0.533014D-02 -0.111603D-01  0.472292D-02  0.463537D-01
     29  0.126013D-01  0.252270D-01  0.269647D-01  0.284469D-01  0.560086D-02
     30 -0.295964D-01  0.874011D-02  0.164449D-01 -0.264138D-02  0.126016D-01
     31 -0.561520D-02  0.103402D+00  0.997967D-01 -0.165236D-01  0.168136D-01
     32 -0.859060D-03  0.900527D-01  0.171563D-01 -0.122892D-01 -0.253465D-01
     33 -0.100157D-01 -0.270000D-01 -0.192955D-01 -0.426198D-01 -0.385432D-01
     34  0.222977D-01  0.367517D-01  0.405860D-01  0.186642D-01  0.385416D-01
     35 -0.254839D-02  0.243801D-01 -0.291287D-01 -0.232429D-02 -0.256758D-01
     36 -0.582059D-02  0.427109D-01  0.202629D-01 -0.231456D-01  0.289904D-01
               11            12            13            14            15 
     11  0.138060D+02
     12 -0.384901D+00  0.146955D+02
     13  0.148753D+01  0.113164D+01  0.108767D+02
     14 -0.292115D+01  0.153622D+01 -0.113377D+01  0.111578D+02
     15  0.156508D+01 -0.390598D+01 -0.788247D+00 -0.921969D+00  0.123455D+02
     16  0.167712D-01 -0.610880D-01  0.217812D-01 -0.867287D-03 -0.105642D-01
     17 -0.485792D-01 -0.208032D-02  0.129703D-01 -0.750792D-02 -0.513772D-02
     18 -0.293400D-02 -0.200123D-01 -0.972736D-02  0.717323D-04 -0.532503D-02
     19 -0.774893D-01  0.617882D-01  0.182957D-02  0.343725D-01 -0.710375D-02
     20  0.331612D-01  0.449498D-01  0.544779D-01  0.464539D-01 -0.194957D-01
     21  0.291074D-01  0.361977D-03 -0.107870D-01 -0.130786D-01 -0.202966D-01
     22 -0.186620D+00  0.406416D+00  0.612167D-01  0.699984D-02 -0.286907D-01
     23 -0.341803D+01 -0.787212D+00 -0.201974D-01  0.841721D-01 -0.595787D-01
     24 -0.890305D+00 -0.165864D+01 -0.456635D-01 -0.203972D-01 -0.989180D-03
     25 -0.114022D+01 -0.306951D+00  0.475903D-01 -0.585409D-01 -0.156569D-01
     26 -0.228070D+01  0.362548D+00 -0.260350D-01  0.374934D-01 -0.288651D-02
     27  0.385165D+00 -0.353246D+01 -0.227712D-02 -0.158060D-01  0.493750D-02
     28 -0.740286D-01 -0.247066D-01 -0.287857D+01 -0.102504D+01 -0.240100D+00
     29  0.277838D-01 -0.336488D-01 -0.126891D+01 -0.201628D+01  0.346067D+00
     30 -0.303198D-01 -0.109764D-01 -0.314225D+00  0.373149D+00 -0.352492D+01
     31 -0.154132D-01 -0.104438D-01 -0.184127D+01  0.644767D+00 -0.859387D+00
     32  0.869844D-02  0.112334D-01  0.645598D+00 -0.304523D+01 -0.391166D+00
     33 -0.113617D-01  0.538610D-01 -0.791693D+00 -0.359258D+00 -0.287891D+01
     34 -0.144712D-01 -0.193802D-01 -0.321779D+01 -0.271793D+00  0.674917D+00
     35  0.309401D-01 -0.731824D-01 -0.207304D+00 -0.318138D+01 -0.638423D+00
     36 -0.312343D-01  0.235710D-01  0.554250D+00 -0.708964D+00 -0.155384D+01
               16            17            18            19            20 
     16  0.175055D+01
     17 -0.140099D+01  0.399951D+01
     18  0.148773D+01  0.666544D+00  0.362491D+01
     19 -0.257825D-01  0.361653D-01 -0.257922D-02  0.383330D+01
     20  0.188331D-01 -0.178513D-01  0.596366D-02 -0.248170D+00  0.124963D+01
     21  0.319415D-02  0.279972D-04  0.110179D-01  0.473067D-01  0.105402D+01
     22  0.351814D-02  0.863653D-03 -0.530048D-02 -0.910153D-02  0.172990D-01
     23  0.517112D-02 -0.169254D-03 -0.281154D-02  0.156424D-01  0.228713D-01
     24 -0.166068D-01 -0.581982D-02  0.799984D-02 -0.221510D-01 -0.564391D-01
     25  0.855624D-02  0.409302D-02 -0.552910D-02 -0.201172D-01  0.981081D-03
     26 -0.933708D-02 -0.364534D-02  0.407592D-02 -0.122214D-01 -0.264613D-02
     27 -0.286519D-02 -0.121447D-02  0.108581D-02  0.181661D-01  0.472756D-03
     28  0.163570D-02  0.258184D-02  0.207208D-03 -0.241883D-02 -0.316942D-02
     29  0.149887D-01  0.568881D-02 -0.499659D-02  0.505808D-02  0.190459D-01
     30  0.150840D-02  0.814010D-03 -0.312990D-02  0.249946D-03  0.175791D-02
     31  0.107667D-01  0.484143D-02 -0.442395D-02  0.129419D-02  0.106460D-01
     32  0.435656D-02  0.108460D-02 -0.146194D-02  0.127424D-02  0.495533D-02
     33 -0.436073D-02 -0.172252D-02  0.119026D-02 -0.225850D-02 -0.564002D-02
     34  0.920137D-02  0.361860D-02 -0.226913D-02  0.570096D-02  0.176059D-01
     35 -0.204758D-02 -0.204808D-02  0.932464D-03  0.561033D-02  0.148444D-02
     36  0.941774D-02  0.369748D-02 -0.442326D-02  0.605725D-02  0.152894D-01
               21            22            23            24            25 
     21  0.326882D+01
     22 -0.147867D-01  0.354005D+01
     23 -0.327140D-01  0.267561D+00  0.353160D+01
     24  0.282250D-01 -0.325283D+00  0.810358D+00  0.131990D+01
     25  0.141622D-01  0.115628D-01  0.701064D-01 -0.432947D-01  0.263240D+01
     26  0.998821D-02  0.685104D-01 -0.403299D-01  0.588947D-01  0.123787D+01
     27 -0.203885D-02 -0.606381D-01  0.834816D-01  0.290082D-01  0.423340D+00
     28  0.126538D-02  0.541221D-02 -0.267872D-02 -0.125569D-01 -0.108310D-01
     29 -0.407052D-02  0.165208D-02 -0.464441D-02  0.134785D-03 -0.323209D-01
     30 -0.286225D-02  0.593725D-03 -0.143066D-01 -0.479914D-02 -0.130839D-01
     31 -0.392434D-02 -0.115873D-02 -0.984360D-02  0.606600D-02 -0.479943D-02
     32 -0.208258D-02 -0.226907D-02 -0.181828D-02  0.199348D-02 -0.879631D-02
     33  0.721516D-03 -0.959271D-02 -0.421240D-02 -0.501316D-02  0.108138D-02
     34 -0.311642D-03 -0.269368D-02 -0.132269D-02  0.557652D-01  0.270974D-02
     35  0.116214D-02 -0.116441D-02 -0.253869D-01  0.137921D-02 -0.120414D-02
     36 -0.640220D-02  0.447032D-01 -0.118194D-02  0.932690D-01 -0.994593D-02
               26            27            28            29            30 
     26  0.214885D+01
     27 -0.485217D+00  0.350452D+01
     28 -0.260763D-01 -0.109771D-01  0.282896D+01
     29  0.712236D-01  0.346077D-01  0.979147D+00  0.189625D+01
     30  0.324685D-01 -0.445863D-02  0.224117D+00 -0.439782D+00  0.357581D+01
     31  0.742333D-02  0.136409D-02 -0.697431D-01  0.290359D-01  0.670623D-01
     32  0.450342D-03  0.268526D-03  0.599948D-01  0.545230D-01 -0.343100D-01
     33 -0.782382D-02  0.117122D-03  0.460418D-01 -0.130437D-01  0.254728D-01
     34 -0.196656D-03 -0.160815D-02  0.913852D-02  0.827445D-01 -0.660984D-01
     35 -0.594211D-02 -0.147786D-01  0.597956D-01 -0.315034D-01  0.793260D-01
     36 -0.569236D-03 -0.454989D-02 -0.316325D-01  0.530102D-01  0.392193D-01
               31            32            33            34            35 
     31  0.163597D+01
     32 -0.758666D+00  0.296492D+01
     33  0.784555D+00  0.362679D+00  0.293962D+01
     34  0.558115D-01 -0.321174D-01  0.677416D-01  0.298224D+01
     35 -0.163513D-01  0.230957D-01  0.606180D-01  0.183636D+00  0.325136D+01
     36  0.413843D-01  0.665844D-01 -0.697988D-01 -0.774168D+00  0.596400D+00
               36 
     36  0.150617D+01
 Leave Link  701 at Wed Jun 18 07:50:12 2025, MaxMem=  4294967296 cpu:         6.8
 (Enter /usr/local/g09/l702.exe)
 L702 exits ... SP integral derivatives will be done elsewhere.
 Leave Link  702 at Wed Jun 18 07:50:13 2025, MaxMem=  4294967296 cpu:         0.1
 (Enter /usr/local/g09/l703.exe)
 Compute integral second derivatives, UseDBF=F ICtDFT=           0.
 Integral derivatives from FoFJK, PRISM(SPDF).
 ICntrl=    100127.
 Calling FoFJK, ICntrl=    100127 FMM=F ISym2X=0 I1Cent= 0 IOpClX= 1 NMat=1 NMatS=1 NMatT=0.
 FoFJK:  IHMeth= 1 ICntrl=  100127 DoSepK=T KAlg= 0 I1Cent=   0 FoldK=F
 IRaf=         1 NMat=   1 IRICut=       1 DoRegI=T DoRafI=F ISym2E= 0.
 FoFCou: FMM=F IPFlag=           0 FMFlag=      100000 FMFlg1=         800
         NFxFlg=           0 DoJE=F BraDBF=F KetDBF=F FulRan=T
         wScrn=  0.000000 ICntrl=  100527 IOpCl=  0 I1Cent=           0 NGrid=           0
         NMat0=    1 NMatS0=      1 NMatT0=    0 NMatD0=    1 NMtDS0=    0 NMtDT0=    0
 Symmetry not used in FoFCou.
 FoFCou:  KetSym=F NOpSet=  1 NOpAb=1 NOp=  1.
 FoFCou:  CnvScl= 1.00D+00 Thresh= 1.00D-12 IAcrcy=      10.
 PrismS was handed  4294642091 working-precision words and  3450 shell-pairs
 FoFCou: LinMIO=F DoNuc=F BraDBF=F KetDBF=F HaveP=T PDBF=F HaveZ=T HaveW=F
         NIJTC =      10 NIJTAt=       0 NIJTCD=       0 NIJTT =      10
         IJTBeg=       1 IJTEnd=      10 KLTBeg=       1 KLTEnd=      10
         IPTBeg=       1 IPTEnd=      10 IPTBCv=       1 IPTECv=      10
         IZTBeg=       1 IZTEnd=      10 IZTBCv=       1 IZTECv=      10
         IWTBeg=      11 IWTEnd=      10 IWTBCv=      11 IWTECv=      10
         INTBeg=       1 INTEnd=       0 IFTBCv=       1 IFTECv=      10
 NCel replicated for PrismC:     1
 CoulSu:  IncDef=  1024 NBBP=        5952975 NTPThr=   100 NPartT=    8 Incr=        1024 LDynOK=F.
 CoulSu:  NPrtUS=   8 ThrOK=T IAlg=1 NPAlg=1 LenDen=           0 LWGrdD=           0 DoCopy=F.
 Enter PrismC: JobTyp=22 DoJE=F Cont=F.
 PrismC:  IPart=     0 DynPar=T LinDyn=F Incr=        1024 UseFst=F UseS4=T IGathr=2.
 PrismC was handed   536768473 working-precision words and  3450 shell-pairs
 Enter PrismC: JobTyp=22 DoJE=F Cont=F.
 PrismC was handed   536768473 working-precision words and  3450 shell-pairs
 Enter PrismC: JobTyp=22 DoJE=F Cont=F.
 PrismC was handed   536768473 working-precision words and  3450 shell-pairs
 Enter PrismC: JobTyp=22 DoJE=F Cont=F.
 PrismC was handed   536768473 working-precision words and  3450 shell-pairs
 Enter PrismC: JobTyp=22 DoJE=F Cont=F.
 PrismC was handed   536768473 working-precision words and  3450 shell-pairs
 Enter PrismC: JobTyp=22 DoJE=F Cont=F.
 PrismC was handed   536768473 working-precision words and  3450 shell-pairs
 Enter PrismC: JobTyp=22 DoJE=F Cont=F.
 PrismC was handed   536768473 working-precision words and  3450 shell-pairs
 Enter PrismC: JobTyp=22 DoJE=F Cont=F.
 PrismC was handed   536768473 working-precision words and  3450 shell-pairs
 IPart=  6 NShTot=      652999 NShNF=      652999 NShFF=           0 NBatch=       16406 AvBLen=        39.8
 IPart=  2 NShTot=      583964 NShNF=      583964 NShFF=           0 NBatch=       15767 AvBLen=        37.0
 IPart=  1 NShTot=      735194 NShNF=      735194 NShFF=           0 NBatch=       17957 AvBLen=        40.9
 IPart=  0 NShTot=      688603 NShNF=      688603 NShFF=           0 NBatch=       16212 AvBLen=        42.5
 IPart=  3 NShTot=      622716 NShNF=      622716 NShFF=           0 NBatch=       14880 AvBLen=        41.8
 IPart=  7 NShTot=      666483 NShNF=      666483 NShFF=           0 NBatch=       16668 AvBLen=        40.0
 IPart=  5 NShTot=      649255 NShNF=      649255 NShFF=           0 NBatch=       16471 AvBLen=        39.4
 IPart=  4 NShTot=      659873 NShNF=      659873 NShFF=           0 NBatch=       17099 AvBLen=        38.6
 CoulSu:  NxtVal=        6355969.
 FoFCou: FMM=F IPFlag=           0 FMFlag=      100000 FMFlg1=         800
         NFxFlg=           0 DoJE=F BraDBF=F KetDBF=F FulRan=T
         wScrn=  0.000000 ICntrl=  100127 IOpCl=  1 I1Cent=           0 NGrid=           0
         NMat0=    1 NMatS0=      0 NMatT0=    1 NMatD0=    1 NMtDS0=    0 NMtDT0=    0
         CW=    0.222036    0.777964
         WU=    0.000000   12.500000
 Symmetry not used in FoFCou.
 FoFCou:  KetSym=F NOpSet=  1 NOpAb=1 NOp=  1.
 FoFCou:  CnvScl= 1.00D+00 Thresh= 1.00D-12 IAcrcy=      10.
 PrismS was handed  4294638689 working-precision words and  3450 shell-pairs
 FoFCou: LinMIO=F DoNuc=F BraDBF=F KetDBF=F HaveP=T PDBF=F HaveZ=T HaveW=F
         NIJTC =      10 NIJTAt=       0 NIJTCD=       0 NIJTT =      10
         IJTBeg=       1 IJTEnd=      10 KLTBeg=       1 KLTEnd=      10
         IPTBeg=       1 IPTEnd=      10 IPTBCv=       1 IPTECv=      10
         IZTBeg=       1 IZTEnd=      10 IZTBCv=       1 IZTECv=      10
         IWTBeg=      11 IWTEnd=      10 IWTBCv=      11 IWTECv=      10
         INTBeg=       1 INTEnd=       0 IFTBCv=       1 IFTECv=      10
 NCel replicated for PrismC:     1
 CoulSu:  IncDef=  1024 NBBP=        5952975 NTPThr=   100 NPartT=    8 Incr=        1024 LDynOK=F.
 CoulSu:  NPrtUS=   8 ThrOK=T IAlg=1 NPAlg=1 LenDen=           0 LWGrdD=           0 DoCopy=F.
 Enter PrismC: JobTyp=22 DoJE=F Cont=F.
 Linear combination for Coulomb/exchange, wScrn=  0.000000
 CW=    0.222036    0.777964
 WU=    0.000000   12.500000
 PrismC:  IPart=     0 DynPar=T LinDyn=F Incr=        1024 UseFst=F UseS4=T IGathr=2.
 PrismC was handed   536768047 working-precision words and  3450 shell-pairs
 Enter PrismC: JobTyp=22 DoJE=F Cont=F.
 Enter PrismC: JobTyp=22 DoJE=F Cont=F.
 Enter PrismC: JobTyp=22 DoJE=F Cont=F.
 Linear combination for Coulomb/exchange, wScrn=  0.000000
 CW=    0.222036    0.777964
 WU=    0.000000   12.500000
 Enter PrismC: JobTyp=22 DoJE=F Cont=F.
 PrismC was handed   536768047 working-precision words and  3450 shell-pairs
 Enter PrismC: JobTyp=22 DoJE=F Cont=F.
 Linear combination for Coulomb/exchange, wScrn=  0.000000
 CW=    0.222036    0.777964
 WU=    0.000000   12.500000
 Linear combination for Coulomb/exchange, wScrn=  0.000000
 CW=    0.222036    0.777964
 WU=    0.000000   12.500000
 Enter PrismC: JobTyp=22 DoJE=F Cont=F.
 Linear combination for Coulomb/exchange, wScrn=  0.000000
 CW=    0.222036    0.777964
 WU=    0.000000   12.500000
 Linear combination for Coulomb/exchange, wScrn=  0.000000
 CW=    0.222036    0.777964
 WU=    0.000000   12.500000
 Enter PrismC: JobTyp=22 DoJE=F Cont=F.
 Linear combination for Coulomb/exchange, wScrn=  0.000000
 CW=    0.222036    0.777964
 WU=    0.000000   12.500000
 PrismC was handed   536768047 working-precision words and  3450 shell-pairs
 PrismC was handed   536768047 working-precision words and  3450 shell-pairs
 PrismC was handed   536768047 working-precision words and  3450 shell-pairs
 PrismC was handed   536768047 working-precision words and  3450 shell-pairs
 PrismC was handed   536768047 working-precision words and  3450 shell-pairs
 Linear combination for Coulomb/exchange, wScrn=  0.000000
 CW=    0.222036    0.777964
 WU=    0.000000   12.500000
 PrismC was handed   536768047 working-precision words and  3450 shell-pairs
 IPart=  1 NShTot=      700442 NShNF=      700442 NShFF=           0 NBatch=       18782 AvBLen=        37.3
 IPart=  6 NShTot=      703378 NShNF=      703378 NShFF=           0 NBatch=       18072 AvBLen=        38.9
 IPart=  0 NShTot=      683571 NShNF=      683571 NShFF=           0 NBatch=       18262 AvBLen=        37.4
 IPart=  7 NShTot=      610364 NShNF=      610364 NShFF=           0 NBatch=       17988 AvBLen=        33.9
 IPart=  5 NShTot=      720664 NShNF=      720664 NShFF=           0 NBatch=       18889 AvBLen=        38.2
 IPart=  3 NShTot=      577827 NShNF=      577827 NShFF=           0 NBatch=       18428 AvBLen=        31.4
 IPart=  4 NShTot=      696640 NShNF=      696640 NShFF=           0 NBatch=       18919 AvBLen=        36.8
 IPart=  2 NShTot=      563003 NShNF=      563003 NShFF=           0 NBatch=       17585 AvBLen=        32.0
 CoulSu:  NxtVal=        6355969.
 ReadGW:  IGet=0 IStart=           1 Next=           1 LGW=           0.
 Remaining memory in FofDFT     4095.90 Mw
 CkSvGd:  ISavGI=        -1 IRadAn=       5 IRASav=       5 ISavGd=        -1.
 CalDSu:  NPrtUS=   8 ThrOK=T IAlg=1 NPAlg=2 DoDPD=T LenP=       24753 LenD1P=             0.
 IPart=  0 IRanGd=          0 ScrnBf=T ScrnGd=T RCrit=4.00D+00 DoMicB=T.
 IPart=  5        30584 of        33412 points in      29 batches and      161 microbatches, Max-NSigAt=      12 Max-NSgAt2=      12
 IPart=  7        32004 of        35482 points in      33 batches and      177 microbatches, Max-NSigAt=      12 Max-NSgAt2=      12
 IPart=  4        30161 of        32334 points in      27 batches and      135 microbatches, Max-NSigAt=      12 Max-NSgAt2=      12
 IPart=  2        36416 of        42296 points in      38 batches and      207 microbatches, Max-NSigAt=      12 Max-NSgAt2=      12
 IPart=  1        30282 of        33476 points in      32 batches and      195 microbatches, Max-NSigAt=      12 Max-NSgAt2=      12
 IPart=  3        28653 of        31586 points in      30 batches and      191 microbatches, Max-NSigAt=      12 Max-NSgAt2=      12
 IPart=  6        27373 of        29794 points in      28 batches and      177 microbatches, Max-NSigAt=      12 Max-NSgAt2=      12
 IPart=  0        27312 of        29070 points in      28 batches and      161 microbatches, Max-NSigAt=      12 Max-NSgAt2=      12
 Polarizability after L703:
                1             2             3 
      1  0.629834D+02
      2 -0.993533D+01  0.606860D+02
      3  0.302185D+00 -0.390679D+01  0.423571D+02
 Dipole Derivatives after L703:
                 1             2             3             4             5 
      1  -0.541134D+00  0.701631D+00 -0.197133D+00  0.509698D+00 -0.914988D+00
      2   0.848519D-01 -0.725322D+00  0.157936D+00 -0.622042D+00  0.873902D+00
      3   0.427692D-01  0.345067D-02 -0.274404D+00  0.926996D-01 -0.135059D+00
                 6             7             8             9            10 
      1   0.183635D+00 -0.228496D+00  0.291928D+00 -0.162305D+00  0.183771D+00
      2  -0.123591D+00  0.448058D+00 -0.488592D+00 -0.183915D+00 -0.297528D-01
      3  -0.371274D-01 -0.239099D+00 -0.445517D-01 -0.202238D+00  0.154880D-01
                11            12            13            14            15 
      1  -0.874266D-01 -0.313075D-01  0.242556D-02  0.859609D-02  0.645737D-01
      2   0.125004D+00  0.633831D-01  0.282029D-01  0.148969D-01 -0.860799D-01
      3   0.225999D-01  0.125831D+00 -0.294401D-02 -0.335135D-01  0.816605D-01
                16            17            18            19            20 
      1   0.203287D+00  0.215137D-01  0.266713D-01  0.598956D-02 -0.209652D-01
      2  -0.130628D-01  0.178213D+00  0.425560D-01 -0.230871D-01  0.302408D-01
      3   0.353629D-01  0.398772D-01  0.247651D+00  0.723862D-01  0.830893D-01
                21            22            23            24            25 
      1   0.911145D-01 -0.361221D-01 -0.312536D-01  0.164378D-01 -0.312704D-01
      2   0.107156D+00  0.456579D-01  0.275983D-01  0.395096D-02  0.712107D-01
      3   0.141487D+00 -0.716719D-01  0.773655D-01 -0.976590D-01  0.259316D-01
                26            27            28            29            30 
      1   0.709196D-01  0.157710D-01  0.978398D-02  0.442247D-01 -0.844143D-02
      2  -0.793603D-01 -0.350002D-01  0.105326D+00 -0.288118D-01 -0.188218D-01
      3  -0.569980D-01  0.706855D-01  0.172037D-01 -0.425805D-01  0.479656D-01
                31            32            33            34            35 
      1  -0.124165D+00 -0.107616D+00  0.844433D-01  0.462320D-01  0.234348D-01
      2  -0.730961D-01  0.610352D-01  0.353549D-01 -0.222667D-01  0.111956D-01
      3   0.572467D-01  0.373061D-02  0.510124D-02 -0.453729D-01  0.825897D-01
                36 
      1  -0.834603D-01
      2   0.370709D-01
      3  -0.108954D+00
 Hessian after L703:
                1             2             3             4             5 
      1  0.610922D-01
      2 -0.637675D-01  0.412185D+00
      3  0.130547D-01 -0.137186D+00  0.774932D-01
      4 -0.684830D-01  0.464003D-01 -0.106077D-01  0.700036D+00
      5  0.409903D-01 -0.336508D+00  0.104864D+00 -0.111711D+00  0.654275D+00
      6 -0.771312D-02  0.101781D+00 -0.887345D-01 -0.153023D+00 -0.178952D+00
      7 -0.214764D-02  0.311424D-01 -0.621953D-02 -0.307600D+00  0.134055D+00
      8  0.386387D-01 -0.607001D-01  0.171399D-01  0.150850D+00 -0.201465D+00
      9 -0.881045D-02  0.188730D-01  0.137597D-01  0.224214D-01  0.228303D-01
     10  0.241166D-02 -0.610600D-02 -0.119392D-02 -0.373362D-01 -0.203188D-02
     11  0.211118D-02  0.601526D-02 -0.618153D-02  0.211628D-01  0.414513D-02
     12 -0.481890D-02  0.937911D-03 -0.689862D-02  0.886539D-02 -0.583315D-02
     13 -0.752472D-03  0.215574D-02 -0.241777D-02  0.280599D-02 -0.510126D-02
     14 -0.122336D-02 -0.181495D-02  0.104290D-02  0.226382D-02  0.384998D-02
     15 -0.530495D-04 -0.323209D-02  0.233681D-02 -0.802607D-03  0.508165D-02
     16  0.904022D-02 -0.117886D-01  0.411193D-02 -0.284063D+00 -0.850081D-01
     17 -0.184571D-01 -0.282838D-01  0.213532D-01 -0.108323D+00 -0.966245D-01
     18  0.714351D-02  0.187589D-01 -0.402216D-02  0.130642D+00  0.547240D-01
     19 -0.135662D-02 -0.106599D-02  0.403345D-02 -0.313085D-02  0.367765D-01
     20  0.223726D-02  0.575831D-02  0.651306D-03 -0.130735D-03 -0.228100D-01
     21  0.165436D-02  0.240346D-02  0.697557D-02  0.202792D-02 -0.732173D-02
     22  0.188297D-02  0.384337D-02 -0.481092D-03  0.224243D-02 -0.552414D-02
     23 -0.148869D-02  0.466662D-03 -0.286754D-03  0.180849D-02  0.173049D-03
     24  0.353926D-03 -0.296743D-02  0.360274D-04 -0.178856D-02  0.383935D-02
     25  0.241539D-03 -0.129788D-02  0.570894D-03 -0.474457D-02 -0.167241D-02
     26  0.439676D-03  0.372866D-04  0.540999D-04 -0.270145D-02 -0.295916D-03
     27 -0.989154D-03  0.332293D-04  0.191544D-03  0.274335D-02  0.188257D-02
     28 -0.170255D-02  0.341708D-03 -0.456903D-03 -0.787130D-04 -0.624713D-03
     29  0.158086D-03  0.118817D-02 -0.466642D-03 -0.347011D-03 -0.187440D-02
     30 -0.425443D-04  0.270957D-03 -0.475139D-03 -0.167277D-05 -0.572372D-03
     31  0.000000D+00  0.847366D-03 -0.636566D-03  0.115728D-02 -0.135765D-02
     32 -0.519686D-04  0.196975D-02 -0.854487D-03  0.878580D-03 -0.316422D-02
     33  0.182185D-04  0.375016D-03 -0.352285D-03 -0.229141D-03 -0.439587D-03
     34 -0.227162D-03 -0.704929D-03  0.242562D-03 -0.804825D-03  0.120910D-02
     35  0.413435D-03 -0.313001D-03 -0.130049D-03 -0.151334D-03  0.299343D-03
     36  0.202538D-03 -0.478812D-04 -0.310191D-03 -0.247628D-03 -0.103223D-03
                6             7             8             9            10 
      6  0.257608D+00
      7  0.334081D-01  0.611119D+00
      8  0.138368D-01 -0.943157D-01  0.650588D+00
      9 -0.682529D-01 -0.135580D+00 -0.206207D+00  0.228606D+00
     10  0.167632D-01 -0.181435D+00 -0.359020D-01  0.596604D-01  0.525127D+00
     11 -0.680141D-02 -0.402453D-01 -0.103812D+00  0.346604D-01 -0.761394D-01
     12  0.667307D-02  0.598123D-01  0.358730D-01 -0.952174D-01 -0.119362D-01
     13  0.140708D-02 -0.235491D-01 -0.209795D-01 -0.108277D-01 -0.970838D-01
     14 -0.198721D-02 -0.142682D-01 -0.106428D-01  0.319384D-03 -0.272526D-01
     15 -0.228643D-02  0.620239D-02  0.970107D-02  0.107135D-01 -0.250453D-01
     16  0.121896D+00 -0.256212D-01 -0.125327D-01  0.155076D-01 -0.697461D-03
     17  0.622758D-01  0.189143D-01  0.127235D-01 -0.104672D-01  0.299384D-02
     18 -0.102947D+00  0.382984D-02  0.352633D-03  0.223829D-02  0.119441D-02
     19 -0.167075D-01 -0.565077D-01 -0.359381D-01  0.321141D-01  0.353965D-02
     20  0.773952D-02 -0.227461D-01 -0.288594D+00  0.129650D+00  0.205471D-02
     21 -0.275108D-02  0.250770D-01  0.135307D+00 -0.765243D-01 -0.176412D-02
     22 -0.594775D-03  0.227224D-02 -0.124729D-01  0.270701D-01 -0.612508D-01
     23 -0.928258D-03 -0.289100D-02 -0.761095D-02  0.116861D-01  0.274257D-01
     24  0.824201D-03  0.407960D-02  0.793632D-02 -0.132128D-01 -0.518235D-01
     25  0.379934D-02 -0.179885D-01  0.233484D-01  0.820266D-03 -0.147285D+00
     26  0.107259D-02 -0.872706D-02  0.949466D-02  0.207199D-02  0.129215D+00
     27 -0.137084D-02  0.895262D-02 -0.128476D-01 -0.250686D-02  0.247893D-01
     28 -0.369354D-04  0.106312D-02  0.636538D-03  0.262717D-03  0.111465D-01
     29  0.562312D-03  0.905141D-03  0.802626D-03  0.267665D-03  0.127437D-01
     30  0.318236D-03  0.174475D-03  0.128664D-02  0.270483D-03  0.114257D-01
     31  0.742655D-03 -0.125360D-02 -0.203529D-02 -0.223508D-02 -0.114982D-01
     32  0.105751D-02 -0.332258D-02 -0.208480D-02 -0.343037D-02 -0.186966D-01
     33  0.531426D-03 -0.101286D-02 -0.277870D-02 -0.108569D-02 -0.171458D-01
     34  0.591537D-04  0.164797D-02  0.702483D-03 -0.402874D-03 -0.563796D-02
     35  0.343355D-03  0.149920D-02  0.130091D-02 -0.254973D-03 -0.830429D-02
     36  0.387763D-03  0.127644D-02  0.399717D-03  0.121213D-02 -0.492415D-02
               11            12            13            14            15 
     11  0.533921D+00
     12 -0.316504D-01  0.511910D+00
     13 -0.314905D-01 -0.308987D-01  0.552356D+00
     14 -0.127607D+00 -0.454062D-01 -0.390263D-01  0.518824D+00
     15 -0.413942D-01 -0.109591D+00 -0.305024D-01 -0.446971D-01  0.545692D+00
     16  0.613546D-02  0.117151D-02  0.894923D-03  0.399510D-04 -0.548644D-03
     17 -0.135412D-02  0.325775D-02  0.665897D-03 -0.763151D-04 -0.656886D-03
     18  0.189436D-02  0.711306D-02  0.160721D-02  0.358633D-03 -0.935502D-03
     19 -0.186352D-01  0.813882D-02 -0.126048D-02 -0.417476D-03  0.181042D-02
     20 -0.982748D-03  0.738708D-03 -0.572013D-03 -0.170848D-03  0.541099D-03
     21  0.628721D-02 -0.301255D-02 -0.271156D-03 -0.395191D-03 -0.790565D-03
     22  0.245022D-01 -0.469216D-01 -0.408878D-02  0.543923D-02 -0.158272D-01
     23 -0.829663D-01  0.869090D-01 -0.753395D-02  0.754615D-02 -0.228684D-01
     24  0.862905D-01 -0.245433D+00 -0.612662D-02  0.583989D-02 -0.180003D-01
     25  0.125761D+00  0.255457D-01  0.107951D-01 -0.143491D-01 -0.301583D-02
     26 -0.209302D+00 -0.292766D-01  0.133584D-01 -0.190336D-01 -0.384115D-02
     27 -0.271502D-01 -0.549903D-01  0.107113D-01 -0.162148D-01 -0.338137D-02
     28 -0.148569D-01 -0.288045D-02 -0.147063D+00  0.127930D+00  0.267964D-01
     29 -0.187508D-01 -0.408380D-02  0.126672D+00 -0.211124D+00 -0.325211D-01
     30 -0.149876D-01 -0.357933D-02  0.255919D-01 -0.321121D-01 -0.552094D-01
     31 -0.351638D-02  0.742791D-02 -0.223228D+00 -0.685353D-01  0.107155D+00
     32 -0.772413D-02  0.117164D-01 -0.678621D-01 -0.733351D-01  0.423787D-01
     33 -0.686965D-02  0.864563D-02  0.108569D+00  0.434498D-01 -0.113957D+00
     34  0.521152D-02 -0.135057D-01 -0.698259D-01  0.293991D-01 -0.661689D-01
     35  0.841753D-02 -0.231825D-01  0.297132D-01 -0.864152D-01  0.915084D-01
     36  0.590253D-02 -0.156199D-01 -0.668422D-01  0.898020D-01 -0.254591D+00
               16            17            18            19            20 
     16  0.300441D+00
     17  0.103976D+00  0.113921D+00
     18 -0.141176D+00 -0.750301D-01  0.100169D+00
     19  0.951537D-03  0.352719D-03 -0.181277D-02  0.601558D-01
     20 -0.131719D-03 -0.340045D-03 -0.146340D-02  0.206214D-01  0.306257D+00
     21 -0.160828D-02 -0.124059D-02 -0.261068D-02 -0.267740D-01 -0.136307D+00
     22  0.558989D-04 -0.100428D-02 -0.143382D-02 -0.252802D-02 -0.498433D-03
[...]
     33 -0.106007D-01  0.104691D-01 -0.100060D+00  0.760929D-01 -0.129735D+00
     34 -0.218514D-01  0.925410D-02 -0.960564D-01 -0.954638D-01  0.371274D-01
     35  0.783951D-02 -0.348579D-02 -0.967764D-01 -0.237076D+00  0.762905D-01
     36  0.158904D-01 -0.746816D-02  0.375771D-01  0.750500D-01 -0.776995D-01
               16            17            18            19            20 
     16  0.223207D+00
     17 -0.138336D+00  0.163192D+00
     18  0.144344D+00 -0.812512D-01  0.128133D+00
     19 -0.706014D-03 -0.154134D-02  0.237560D-02  0.531263D-01
     20 -0.980668D-03  0.468046D-04  0.217025D-03 -0.717017D-01  0.353504D+00
     21  0.248322D-02  0.202950D-03 -0.133998D-02  0.176304D-01  0.387936D-01
     22 -0.548421D-03 -0.237728D-05  0.129224D-02 -0.181767D-02  0.146930D-02
     23 -0.382928D-04 -0.192150D-03 -0.550883D-04  0.584658D-03 -0.331457D-03
     24 -0.478559D-03 -0.370511D-04  0.102902D-02 -0.195909D-03  0.710180D-03
     25 -0.649779D-03 -0.578537D-03 -0.811713D-03  0.437881D-03  0.134973D-03
     26  0.100872D-02  0.231771D-03  0.727035D-04 -0.632170D-03  0.598902D-03
     27 -0.637869D-03 -0.592405D-03 -0.160267D-03  0.309572D-03  0.268299D-03
     28 -0.979055D-04  0.474954D-04 -0.121463D-04 -0.986877D-05 -0.282078D-04
     29  0.956394D-04 -0.222578D-04 -0.288533D-04  0.712458D-05  0.305220D-04
     30  0.136728D-03  0.137308D-04  0.196343D-04 -0.829744D-05 -0.288289D-04
     31  0.383069D-03  0.356098D-04 -0.251864D-03 -0.816758D-03  0.178391D-03
     32 -0.134234D-03 -0.562685D-04  0.726655D-04 -0.991360D-04 -0.345498D-05
     33 -0.769907D-04  0.116480D-05  0.199713D-03  0.432214D-03 -0.201862D-03
     34 -0.104976D-03 -0.973182D-04  0.195519D-04 -0.405050D-03  0.404638D-04
     35  0.218727D-05 -0.206738D-04  0.495637D-04 -0.270165D-03 -0.157152D-05
     36 -0.545066D-04  0.307561D-04  0.728209D-04  0.303353D-03 -0.722507D-04
               21            22            23            24            25 
     21  0.401380D-01
     22 -0.207841D-02  0.931108D-01
     23  0.262806D-02  0.835405D-01  0.249305D+00
     24 -0.185574D-02 -0.390200D-01 -0.884907D-01  0.865886D-01
     25  0.586736D-03 -0.378000D-02 -0.551011D-02 -0.904933D-02  0.777184D-01
     26  0.673525D-05 -0.680664D-02 -0.139405D-01 -0.213080D-01  0.423615D-01
     27  0.668253D-03  0.333130D-02  0.636591D-02  0.106272D-01  0.625367D-01
     28 -0.849509D-04  0.105878D-02 -0.237403D-03 -0.851359D-03 -0.459713D-02
     29  0.386593D-04  0.227123D-03  0.464815D-03  0.459311D-03  0.125013D-02
     30  0.791468D-04 -0.326417D-03  0.337908D-03  0.180591D-03  0.337823D-02
     31 -0.123244D-03  0.553437D-03 -0.549218D-03 -0.593712D-03  0.103357D-02
     32  0.388291D-04 -0.267114D-03  0.430152D-03 -0.190856D-03 -0.572586D-04
     33  0.210155D-03 -0.907982D-03  0.153678D-03  0.885313D-03 -0.836726D-03
     34  0.192250D-03 -0.395475D-02  0.168147D-02  0.324188D-02  0.122387D-02
     35 -0.100872D-03  0.203492D-02  0.831042D-03 -0.120244D-02 -0.507092D-03
     36  0.659266D-04  0.344181D-02 -0.127467D-02 -0.152543D-02 -0.614265D-03
               26            27            28            29            30 
     26  0.145623D+00
     27  0.128675D+00  0.223650D+00
     28  0.160473D-02  0.362410D-02  0.736607D-01
     29  0.850946D-03 -0.439097D-03  0.431415D-01  0.143024D+00
     30 -0.392478D-03 -0.768901D-03  0.583402D-01  0.131131D+00  0.227865D+00
     31  0.126466D-03  0.223374D-04 -0.579043D-02  0.405476D-02 -0.395287D-02
     32 -0.336291D-03  0.954984D-04 -0.133254D-01  0.104863D-01 -0.102088D-01
     33  0.214191D-04  0.823487D-03 -0.156836D-01  0.140701D-01 -0.132299D-01
     34  0.292703D-03 -0.479836D-03 -0.423503D-02 -0.670851D-02  0.316642D-02
     35  0.737366D-03  0.574159D-03 -0.633218D-02 -0.144775D-01  0.717369D-02
     36  0.437629D-03  0.147231D-03 -0.106343D-01 -0.214824D-01  0.105773D-01
               31            32            33            34            35 
     31  0.179545D+00
     32 -0.994910D-01  0.121282D+00
     33  0.105730D+00 -0.820143D-01  0.138113D+00
     34  0.105657D-01  0.187319D-01 -0.668070D-02  0.104309D+00
     35 -0.702432D-02 -0.126722D-01  0.371370D-02  0.104361D+00  0.253744D+00
     36  0.851729D-02  0.143831D-01 -0.622803D-02 -0.454500D-01 -0.825668D-01
               36 
     36  0.818303D-01
 Final forces over variables, Energy=-2.27913944D+02:
 -3.90215967D-07 4.62857243D-07-4.24524320D-07 4.14272524D-07
  5.37053630D-07-9.34566923D-07-3.20993268D-07 6.50756154D-07
  5.80107542D-07-3.39700323D-07 2.09169878D-07-4.44216182D-07
 -7.62270316D-07-8.73621466D-07-4.32318056D-07 7.42557517D-07
  2.92200932D-07-8.53595734D-07 4.62628520D-09 4.24905313D-07
  9.70493171D-07-2.77279547D-07 8.32102968D-07-6.78012361D-08
  1.43470031D-06 9.43027940D-07-4.38215961D-07-1.23764799D-08
 -4.30843711D-07 4.03395097D-07-3.73656397D-07 7.26550837D-07
 -4.97239079D-07-8.72382106D-08-6.11243085D-07-1.05686143D-06
 Leave Link  716 at Wed Jun 18 07:53:40 2025, MaxMem=  4294967296 cpu:         0.4
 (Enter /usr/local/g09/l103.exe)

 GradGradGradGradGradGradGradGradGradGradGradGradGradGradGradGradGradGrad
 Berny optimization.
 Search for a local minimum.
 Step number   1 out of a maximum of    2
 All quantities printed in internal units (Hartrees-Bohrs-Radians)
 Second derivative matrix not updated -- analytic derivatives used.
 ITU=  0
     Eigenvalues ---    0.00126   0.00263   0.00604   0.01227   0.02132
     Eigenvalues ---    0.03286   0.03829   0.05237   0.06085   0.07164
     Eigenvalues ---    0.07615   0.08195   0.10055   0.11299   0.12943
     Eigenvalues ---    0.14509   0.15748   0.18361   0.19620   0.24185
     Eigenvalues ---    0.37323   0.52964   0.66809   0.70783   0.76176
     Eigenvalues ---    0.80452   0.87875   0.93686   1.05078   1.23436
 Angle between quadratic step and forces=  76.08 degrees.
 Linear search not attempted -- first point.
 TrRot=  0.000016  0.000006 -0.000015  0.000000  0.000011  0.000000
 Variable       Old X    -DE/DX   Delta X   Delta X   Delta X     New X
                                 (Linear)    (Quad)   (Total)
    X1        2.84122   0.00000   0.00000   0.00016   0.00020   2.84142
    Y1        2.23308   0.00000   0.00000   0.00007   0.00008   2.23316
    Z1        2.22358   0.00000   0.00000  -0.00017  -0.00021   2.22337
    X2        2.94424   0.00000   0.00000   0.00004   0.00007   2.94432
    Y2       -0.09660   0.00000   0.00000   0.00002   0.00002  -0.09658
    Z2        1.53538   0.00000   0.00000  -0.00002  -0.00006   1.53532
    X3        1.60295   0.00000   0.00000  -0.00004  -0.00003   1.60293
    Y3       -1.34873   0.00000   0.00000  -0.00001   0.00000  -1.34873
    Z3       -0.15197   0.00000   0.00000   0.00007   0.00004  -0.15193
    X4       -0.41808   0.00000   0.00000   0.00001   0.00001  -0.41807
    Y4       -0.02368   0.00000   0.00000   0.00004   0.00005  -0.02363
    Z4       -1.58279   0.00000   0.00000   0.00004   0.00003  -1.58275
    X5       -2.74529   0.00000   0.00000  -0.00006  -0.00005  -2.74533
    Y5        0.62404   0.00000   0.00000  -0.00007  -0.00007   0.62397
    Z5        0.01777   0.00000   0.00000  -0.00002  -0.00001   0.01776
    X6        4.29834   0.00000   0.00000  -0.00002   0.00003   4.29837
    Y6       -1.10715   0.00000   0.00000   0.00000   0.00001  -1.10714
    Z6        2.46633   0.00000   0.00000   0.00005  -0.00001   2.46631
    X7        2.04173   0.00000   0.00000  -0.00018  -0.00017   2.04156
    Y7       -3.32839   0.00000   0.00000  -0.00005  -0.00005  -3.32843
    Z7       -0.34619   0.00000   0.00000   0.00020   0.00016  -0.34603
    X8        0.36450   0.00000   0.00000   0.00005   0.00004   0.36454
    Y8        1.73365   0.00000   0.00000   0.00010   0.00010   1.73375
    Z8       -2.35753   0.00000   0.00000   0.00020   0.00019  -2.35734
    X9       -0.97100   0.00000   0.00000   0.00010   0.00008  -0.97091
    Y9       -1.19741   0.00000   0.00000   0.00014   0.00015  -1.19726
    Z9       -3.18452   0.00000   0.00000  -0.00006  -0.00006  -3.18459
   X10       -2.21878   0.00000   0.00000  -0.00013  -0.00009  -2.21888
   Y10        1.79669   0.00000   0.00000  -0.00026  -0.00025   1.79644
   Z10        1.62969   0.00000   0.00000   0.00013   0.00014   1.62983
   X11       -4.12789   0.00000   0.00000   0.00002   0.00003  -4.12786
   Y11        1.66561   0.00000   0.00000   0.00008   0.00009   1.66569
   Z11       -1.10222   0.00000   0.00000   0.00001   0.00004  -1.10218
   X12       -3.64630   0.00000   0.00000  -0.00015  -0.00013  -3.64642
   Y12       -1.08802   0.00000   0.00000  -0.00013  -0.00013  -1.08815
   Z12        0.73045   0.00000   0.00000  -0.00026  -0.00024   0.73021
         Item               Value     Threshold  Converged?
 Maximum Force            0.000001     0.000450     YES
 RMS     Force            0.000001     0.000300     YES
 Maximum Displacement     0.000255     0.001800     YES
 RMS     Displacement     0.000111     0.001200     YES
 Predicted change in Energy=-4.728044D-11
 Optimization completed.
    -- Stationary point found.
 GradGradGradGradGradGradGradGradGradGradGradGradGradGradGradGradGradGrad

 Leave Link  103 at Wed Jun 18 07:53:41 2025, MaxMem=  4294967296 cpu:         0.8
 (Enter /usr/local/g09/l9999.exe)

 Test job not archived.
 1\1\GINC-N017\Freq\UwB97XD\def2TZVP\C3H7N2(2)\CALVIN.P\18-Jun-2025\0\\
 #P guess=read uwb97xd/def2tzvp freq IOp(7/33=1) integral=(grid=ultrafi
 ne, Acc2E=12) IOp(2/9=2000) scf=(direct,tight)\\rmg_rxn_10695_r1_sbr-N
 --sbrsbr-NHp-sbr=CCC\\0,2\N,1.503509,1.181696,1.176668\N,1.558026,-0.0
 51119,0.81249\C,0.848246,-0.713718,-0.080418\C,-0.221239,-0.012531,-0.
 837574\C,-1.452743,0.330226,0.009404\H,2.274585,-0.585879,1.305124\H,1
 .080436,-1.761307,-0.183196\H,0.192884,0.917407,-1.24755\H,-0.513829,-
 0.633641,-1.685178\H,-1.17413,0.950768,0.862394\H,-2.184383,0.881402,-
 0.583268\H,-1.929537,-0.575756,0.386536\\Version=EM64L-G09RevD.01\Stat
 e=2-A\HF=-227.9139445\S2=0.836352\S2-1=0.\S2A=0.75075\RMSD=5.911e-09\R
 MSF=6.190e-07\ZeroPoint=0.1018583\Thermal=0.1077253\Dipole=0.1307836,-
 1.1366843,-0.2257352\DipoleDeriv=-0.351925,0.0217741,-0.0694073,-0.493
 1036,-0.6842387,-0.5356763,-0.2461653,-0.1288678,-0.5046953,0.1356635,
 0.3107347,0.2607161,0.5799894,0.7556114,0.723081,0.3587525,0.6130424,0
 .4551984,-0.1904239,-0.3446736,0.0400996,-0.2492359,-0.3248476,-0.2356
 493,0.0771831,-0.4336703,-0.4040548,0.1454479,0.0184154,-0.0046542,0.0
 54847,0.0891899,0.018124,0.0648521,0.0500762,0.1999676,0.0279012,0.007
 6202,-0.0004005,0.0341749,0.0949733,-0.010957,-0.0406212,-0.0843289,-0
 .0238915,0.2335353,0.0391084,-0.0337226,0.0101088,0.1647094,-0.0203905
 ,-0.0471563,-0.004365,0.2309064,0.0753389,0.0626554,-0.0994054,0.08102
 76,-0.0147112,-0.0034205,-0.1170514,0.013477,0.11709,-0.041539,-0.0857
 267,0.012926,-0.0149986,-0.0567107,0.1150724,-0.0091574,-0.0014533,-0.
 007933,0.0159246,-0.0069367,-0.0381198,-0.0024634,0.011404,-0.111694,-
 0.0309096,-0.0889953,-0.0672738,0.0465576,-0.0531553,-0.0467435,-0.010
 6622,0.0207877,-0.073566,0.0085988,-0.0642317,-0.0384076,-0.0981289,0.
 0553969,-0.071575,0.1085925,0.03482,0.0702487,-0.0749368,0.0797497,0.0
 052804,0.0016479,-0.0252126,0.0502868,-0.0982767,-0.0909876,0.0648276,
 0.0566113,0.049567,0.0378131\Polar=54.8852621,4.2436195,58.9438033,9.9
 209207,10.6712914,52.1974216\PG=C01 [X(C3H7N2)]\NImag=0\\0.04102816,-0
 .01523695,0.43213665,0.01033022,0.12373667,0.07760540,-0.05638131,0.01
 220198,-0.00476519,0.47014930,0.01637973,-0.35259661,-0.08678927,-0.06
 089126,0.68734446,-0.00376145,-0.09214568,-0.08474791,0.29932364,0.129
 87807,0.45442518,0.01188738,-0.01064428,-0.00841397,-0.17946393,-0.060
 69848,-0.14183620,0.40877520,-0.01679774,-0.05538108,-0.04281606,-0.07
 494187,-0.18364801,-0.11084052,-0.07021232,0.70013703,-0.01081689,-0.0
 3809685,-0.00559443,-0.14330623,-0.09414817,-0.21420643,0.26756981,0.1
 2803722,0.38140099,-0.00151296,-0.00014199,0.00608527,-0.01803380,0.00
 966642,-0.02065840,-0.14493792,0.05268090,-0.06574770,0.47162776,-0.00
 504402,0.00402036,-0.00017490,-0.01120289,0.01087334,-0.01009275,0.056
 50852,-0.12754390,0.03220418,0.04590484,0.56210322,0.00380842,0.009931
 30,-0.00097909,-0.02795670,0.00051451,-0.01935754,-0.06338338,0.031861
 67,-0.10798204,0.04583555,0.02591102,0.53722644,-0.00119871,-0.0010220
 4,0.00019061,0.00208983,0.00161943,0.00224037,-0.02860987,0.01036739,0
 .00425376,-0.14069727,0.01347486,0.05255661,0.50229900,0.00086205,0.00
 054225,0.00025867,-0.00194586,0.00040204,-0.00097312,0.01814126,-0.006
 69873,-0.00482594,0.01505023,-0.07935726,-0.01675237,0.02167861,0.5720
 3623,0.00049248,-0.00536670,0.00042585,-0.00067618,0.00840122,0.001877
 67,-0.01393845,0.00080364,0.01183021,0.04512767,-0.01348937,-0.1142272
 8,0.05298708,-0.01622848,0.54253701,0.00355520,0.01575049,0.00233568,-
 0.21656246,0.11332357,-0.13166423,-0.01317834,0.01199671,-0.01185079,0
 .00361526,-0.00208513,-0.00585584,0.00108774,-0.00060260,0.00131889,0.
 22320663,0.02114404,-0.03719025,0.00580401,0.13188492,-0.13869595,0.08
 754381,-0.01270484,0.01412476,-0.00855861,-0.00032495,-0.00119173,-0.0
 0324753,0.00047367,-0.00022582,0.00009038,-0.13833639,0.16319175,0.003
 94218,0.00044504,0.01036930,-0.12463175,0.07071728,-0.12837618,-0.0214
 6613,0.01467351,-0.01160575,-0.00395664,-0.00548895,0.00263794,-0.0008
 4358,0.00057630,-0.00097881,0.14434426,-0.08125120,0.12813256,0.002340
 38,0.00235300,-0.00528409,0.00067785,-0.02764151,-0.00315232,-0.052519
 56,0.08145895,-0.01516712,0.00061437,0.01620710,0.00421317,-0.00092191
 ,0.00127516,-0.00145660,-0.00070601,-0.00154134,0.00237560,0.05312634,
 -0.00056737,0.00483622,-0.00151525,0.00290994,-0.01805705,-0.00124247,
 0.07048185,-0.33616096,-0.03625432,-0.00185767,-0.00409514,-0.00143380
 ,-0.00007935,-0.00036668,0.00075964,-0.00098067,0.00004680,0.00021703,
 -0.07170166,0.35350387,-0.00539608,0.00181649,0.00420066,0.00419580,-0
 .03210691,-0.01131274,-0.01753328,-0.02487661,-0.03294554,-0.00023727,
 0.01308465,0.00302513,0.00036478,0.00047439,-0.00093330,0.00248322,0.0
 0020295,-0.00133998,0.01763044,0.03879363,0.04013803,0.00185145,-0.002
 36389,-0.00039005,0.00052687,0.00277217,0.00314883,0.00662192,0.022802
 54,-0.01084745,-0.08061967,-0.08005390,0.03048157,-0.01300271,-0.02335
 259,0.01187460,-0.00054842,-0.00000238,0.00129224,-0.00181767,0.001469
 30,-0.00207841,0.09311076,0.00087375,0.00176098,0.00146252,-0.00123843
 ,-0.00089254,-0.00285660,0.00228773,-0.01719692,0.00860391,-0.08500446
 ,-0.22642107,0.07617563,0.00360985,0.00618251,-0.00305060,-0.00003829,
 -0.00019215,-0.00005509,0.00058466,-0.00033146,0.00262806,0.08354046,0
 .24930517,0.00220982,-0.00290469,-0.00122677,-0.00044708,0.00413677,0.
 00360535,0.00228878,0.01500832,-0.00797649,0.03275558,0.07798620,-0.08
 260894,0.01013993,0.01583295,-0.00772271,-0.00047856,-0.00003705,0.001
 02902,-0.00019591,0.00071018,-0.00185574,-0.03902005,-0.08849065,0.086
 58863,-0.00011945,0.00127623,0.00016118,-0.00300576,0.00251557,-0.0037
 4456,-0.00839495,-0.01643308,-0.01733369,-0.06674717,-0.04159033,-0.05
 740544,0.00688052,0.01713804,0.02313283,-0.00064978,-0.00057854,-0.000
 81171,0.00043788,0.00013497,0.00058674,-0.00378000,-0.00551011,-0.0090
 4933,0.07771840,-0.00082352,0.00007337,-0.00043016,0.00308775,-0.00169
 024,0.00197247,0.00515523,0.01006635,0.01435123,-0.04363040,-0.1384615
 4,-0.11840208,-0.00174433,-0.00375316,-0.00500393,0.00100872,0.0002317
 7,0.00007270,-0.00063217,0.00059890,0.00000674,-0.00680664,-0.01394051
 ,-0.02130804,0.04236147,0.14562304,0.00040145,0.00056314,0.00051645,-0
 .00233025,0.00268131,-0.00171533,-0.00426876,-0.01174125,-0.01267211,-
 0.05893639,-0.11515864,-0.20636890,-0.00357239,-0.01129142,-0.01474729
 ,-0.00063787,-0.00059240,-0.00016027,0.00030957,0.00026830,0.00066825,
 0.00333130,0.00636591,0.01062717,0.06253675,0.12867451,0.22365021,-0.0
 0136094,-0.00108992,-0.00050569,-0.00045907,0.00117241,0.00041549,0.00
 163697,-0.00068167,-0.00037371,0.00721158,0.01713576,0.02329018,-0.067
 01764,-0.04140708,-0.05752422,-0.00009791,0.00004750,-0.00001215,-0.00
 000987,-0.00002821,-0.00008495,0.00105878,-0.00023740,-0.00085136,-0.0
 0459713,0.00160473,0.00362410,0.07366067,-0.00042383,0.00066201,0.0002
 4168,0.00049596,-0.00106762,-0.00026800,-0.00048817,-0.00016994,-0.000
 28633,-0.00073824,-0.00402855,-0.00490493,-0.04091345,-0.13575229,-0.1
 1853148,0.00009564,-0.00002226,-0.00002885,0.00000712,0.00003052,0.000
 03866,0.00022712,0.00046482,0.00045931,0.00125013,0.00085095,-0.000439
 10,0.04314146,0.14302351,-0.00077153,0.00072656,-0.00029059,0.00028403
 ,-0.00121193,-0.00010819,-0.00051424,0.00074375,0.00066920,-0.00389783
 ,-0.01007112,-0.01436666,-0.05583439,-0.11821386,-0.21062672,0.0001367
 3,0.00001373,0.00001963,-0.00000830,-0.00002883,0.00007915,-0.00032642
 ,0.00033791,0.00018059,0.00337823,-0.00039248,-0.00076890,0.05834016,0
 .13113137,0.22786514,0.00011871,-0.00172858,-0.00005558,0.00080430,0.0
 0258761,0.00084660,-0.00423573,0.00058706,0.00316491,-0.01730852,0.012
 59654,-0.01483825,-0.16485253,0.08862664,-0.09846547,0.00038307,0.0000
 3561,-0.00025186,-0.00081676,0.00017839,-0.00012324,0.00055344,-0.0005
 4922,-0.00059371,0.00103357,0.00012647,0.00002234,-0.00579043,0.004054
 76,-0.00395287,0.17954516,-0.00019574,0.00133715,0.00036786,-0.0002164
 0,-0.00213352,-0.00110340,0.00245041,0.00133584,-0.00059818,0.00329221
 ,-0.00373724,0.00383236,0.08931174,-0.11593259,0.07532515,-0.00013423,
 -0.00005627,0.00007267,-0.00009914,-0.00000345,0.00003883,-0.00026711,
 0.00043015,-0.00019086,-0.00005726,-0.00033629,0.00009550,-0.01332539,
 0.01048632,-0.01020878,-0.09949096,0.12128207,-0.00012123,0.00099661,0
 .00016250,0.00039714,-0.00145259,-0.00014630,0.00289953,-0.00078014,-0
 .00152421,0.01490835,-0.01060069,0.01046910,-0.10005987,0.07609287,-0.
 12973509,-0.00007699,0.00000116,0.00019971,0.00043221,-0.00020186,0.00
 021016,-0.00090798,0.00015368,0.00088531,-0.00083673,0.00002142,0.0008
 2349,-0.01568358,0.01407011,-0.01322993,0.10572985,-0.08201427,0.13811
 329,-0.00020792,0.00064595,0.00031159,-0.00034182,-0.00080566,-0.00115
 777,0.00241884,-0.00082687,0.00045512,-0.01321166,-0.02185135,0.009254
 10,-0.09605643,-0.09546383,0.03712739,-0.00010498,-0.00009732,0.000019
 55,-0.00040505,0.00004046,0.00019225,-0.00395475,0.00168147,0.00324188
 ,0.00122387,0.00029270,-0.00047984,-0.00423503,-0.00670851,0.00316642,
 0.01056573,0.01873188,-0.00668070,0.10430918,-0.00017041,-0.00020105,-
 0.00014577,-0.00014384,0.00016170,0.00012820,-0.00027691,0.00113555,-0
 .00042814,0.00510312,0.00783951,-0.00348579,-0.09677637,-0.23707649,0.
 07629052,0.00000219,-0.00002067,0.00004956,-0.00027017,-0.00000157,-0.
 00010087,0.00203492,0.00083104,-0.00120244,-0.00050709,0.00073737,0.00
 057416,-0.00633218,-0.01447746,0.00717369,-0.00702432,-0.01267217,0.00
 371370,0.10436106,0.25374426,-0.00031738,0.00029811,-0.00044138,-0.000
 08722,-0.00062030,0.00006240,-0.00140371,-0.00007351,0.00060661,0.0087
 2182,0.01589036,-0.00746816,0.03757710,0.07505002,-0.07769953,-0.00005
 451,0.00003076,0.00007282,0.00030335,-0.00007225,0.00006593,0.00344181
 ,-0.00127467,-0.00152543,-0.00061426,0.00043763,0.00014723,-0.01063428
 ,-0.02148244,0.01057727,0.00851729,0.01438313,-0.00622803,-0.04545000,
 -0.08256682,0.08183027\\0.00000039,0.00000076,-0.00000143,-0.00000046,
 0.00000087,-0.00000094,0.00000042,0.00000043,0.00000044,-0.00000041,-0
 .00000074,0.00000001,-0.00000054,-0.00000029,0.00000043,0.00000093,0.0
 0000085,-0.00000040,0.00000032,0.,0.00000037,-0.00000065,-0.00000042,-
 0.00000073,-0.00000058,-0.00000097,0.00000050,0.00000034,0.00000028,0.
 00000009,-0.00000021,-0.00000083,0.00000061,0.00000044,0.00000007,0.00
 000106\\\@


  DISAPPOINTMENT IS THE NURSE OF WISDOM.               
                              SIR BOYLE ROCHE                 
 Job cpu time:       0 days  1 hours 11 minutes 51.8 seconds.
 File lengths (MBytes):  RWF=     79 Int=      0 D2E=      0 Chk=      5 Scr=      1
 Normal termination of Gaussian 09 at Wed Jun 18 07:53:41 2025.
