
 Working directory              : /scratch/molpro/JOB
 Global scratch directory       : /scratch/molpro/JOB
 Wavefunction directory         : /home/user/wfu/
 Main file repository           : /scratch/molpro/JOB

 id        : dana

 Nodes                   nprocs
 n171.hpc.example   11
 Distribution of processes:   nprocs(total)=   12   nprocs(compute)=   11   nprocs(helper)=    1
 GA implementation: MPI file
 GA implementation (serial work in mppx): MPI file

 Using customized tuning parameters: mindgm=1; mindgv=20; mindgc=4; mindgr=1; noblas=0; minvec=7
 default implementation of scratch files=sf  


 Variables initialized (1066), CPU time= 0.01 sec
 ***,C4H6O[247]
 memory,Total=1313,m;
 
 geometry={angstrom;
 O      -1.74076900   -0.85125100   -0.11842400
 C      -0.05051100    0.83918300    0.16104700
 C       0.99278400   -0.21082400    0.36435500
 C      -1.43353200    0.30678800   -0.11994300
 C       2.15694800   -0.23398200   -0.26266700
 H       0.21754600    1.52505800   -0.64918300
 H      -0.15133400    1.47027400    1.05502100
 H       0.74741200   -0.99301800    1.07466600
 H      -2.19221800    1.09125200   -0.32542100
 H       2.42793700    0.52421700   -0.98974500
 H       2.88268000   -1.01476300   -0.07470100}
 
 gprint,orbitals;
 
 basis=cc-pvtz-f12
 
 
 
 int;
 
 {hf;
  maxit,999;
  wf,spin=0,charge=0;
 }
 
 ccsd(t)-f12;
 
 
 

 Commands initialized (848), CPU time= 0.04 sec, 732 directives.
 Default parameters read. Elapsed time= 0.25 sec

 Checking input...
 Passed
1


                                         ***  PROGRAM SYSTEM MOLPRO  ***
                                       Copyright, TTI GmbH Stuttgart, 2015
                                  Version 2026.1 linked Wed Jun  3 18:57:24 2026


 **********************************************************************************************************************************
 LABEL *   C4H6O[247]                                                                                                                                                    
                                                                                         DATE: 19-Jul-26          TIME: 11:49:32  
 **********************************************************************************************************************************

 SHA1:             6d9f1312673b6313bee3f063234a8989bae25437
 **********************************************************************************************************************************

 Memory per process:        90 MW
 Total memory per node:   1313 MW
 Total GA space:           328 MW

 GA preallocation disabled
 GA check enabled

 Variable memory set to 89.5 MW


 Geometry recognized as XYZ


 SETTING BASIS          =    CC-PVTZ-F12


 Using spherical harmonics

 Library entry O      S cc-pVTZ-F12          selected for orbital group  1
 Library entry O      P cc-pVTZ-F12          selected for orbital group  1
 Library entry O      D cc-pVTZ-F12          selected for orbital group  1
 Library entry O      F cc-pVTZ-F12          selected for orbital group  1
 Library entry C      S cc-pVTZ-F12          selected for orbital group  2
 Library entry C      P cc-pVTZ-F12          selected for orbital group  2
 Library entry C      D cc-pVTZ-F12          selected for orbital group  2
 Library entry C      F cc-pVTZ-F12          selected for orbital group  2
 Library entry H      S cc-pVTZ-F12          selected for orbital group  3
 Library entry H      P cc-pVTZ-F12          selected for orbital group  3
 Library entry H      D cc-pVTZ-F12          selected for orbital group  3


 PROGRAM * SEWARD (Integral evaluation for generally contracted gaussian basis sets)     Author: Roland Lindh, 1990

 Geometry written to block  1 of record 700


 Point group  C1  



 ATOMIC COORDINATES

 NR  ATOM    CHARGE       X              Y              Z

   1  O       8.00   -3.289576656   -1.608631253   -0.223788927
   2  C       6.00   -0.095451956    1.585826038    0.304334723
   3  C       6.00    1.876089861   -0.398399620    0.688531162
   4  C       6.00   -2.708982871    0.579745298   -0.226659421
   5  C       6.00    4.076040985   -0.442161898   -0.496368692
   6  H       1.00    0.411102360    2.881941944   -1.226778075
   7  H       1.00   -0.285979813    2.778415188    1.993700746
   8  H       1.00    1.412403982   -1.876532057    2.030824415
   9  H       1.00   -4.142691625    2.062167413   -0.614956565
  10  H       1.00    4.588135978    0.990626560   -1.870346983
  11  H       1.00    5.447475705   -1.917624151   -0.141164431

 Bond lengths in Bohr (Angstrom)

 1-4  2.264086861  2-3  2.823426200  2-4  2.850385426  2-6  2.069014286  2-7  2.076662539
     ( 1.198103170)     ( 1.494092802)     ( 1.508359010)     ( 1.094875209)     ( 1.098922491)

  3- 5  2.499137401   3- 8  2.049788104   4- 9  2.098540157   5-10  2.050107410   5-11  2.045480902
       ( 1.322486560)       ( 1.084701152)       ( 1.110499627)       ( 1.084870121)       ( 1.082421878)

 Bond angles

  1-4-2  125.17329296   1-4-9  120.51895969   2-3-5  124.22712245   2-3-8  115.97176329

  2-4-9  114.30268178   3-2-4  114.68015673   3-2-6  111.71465787   3-2-7  110.91347420

  3- 5-10  121.69545873   3- 5-11  121.36597800   4- 2- 6  107.92295922   4- 2- 7  105.67156599

  5- 3- 8  119.80042981   6- 2- 7  105.35005527  10- 5-11  116.93828627

 NUCLEAR CHARGE:                   38
 NUMBER OF PRIMITIVE AOS:         486
 NUMBER OF SYMMETRY AOS:          435
 NUMBER OF CONTRACTIONS:          373   (  373A   )
 NUMBER OF INNER CORE ORBITALS:     0   (    0A   )
 NUMBER OF OUTER CORE ORBITALS:     5   (    5A   )
 NUMBER OF VALENCE ORBITALS:       26   (   26A   )


 NUCLEAR REPULSION ENERGY 157.66898377


 Eigenvalues of metric

         1 0.295E-04 0.540E-04 0.802E-04 0.940E-04 0.104E-03 0.114E-03 0.123E-03 0.132E-03


 Contracted 2-electron integrals neglected if value below      1.0D-12
 AO integral compression algorithm  1   Integral accuracy      1.0D-12

     10124.263 MB (compressed) written to integral file ( 47.5%)

     Node minimum: 803.209 MB, node maximum: 1347.158 MB


 NUMBER OF SORTED TWO-ELECTRON INTEGRALS:  221180421.     BUFFER LENGTH:  32768
 NUMBER OF SEGMENTS:   7  SEGMENT LENGTH:   31988979      RECORD LENGTH: 524288

 Memory used in sort:      32.55 MW

 SORT1 READ  2666809854. AND WROTE   200963650. INTEGRALS IN    578 RECORDS. CPU TIME:    56.31 SEC, REAL TIME:    56.70 SEC
 SORT2 READ  2204599536. AND WROTE  2432635876. INTEGRALS IN  34232 RECORDS. CPU TIME:     5.17 SEC, REAL TIME:     5.21 SEC

 Node minimum:   221117011.  Node maximum:   221180421. integrals

 OPERATOR DM      FOR CENTER  0  COORDINATES:    0.000000    0.000000    0.000000


 **********************************************************************************************************************************
 DATASETS  * FILE   NREC   LENGTH (MB)   RECORD NAMES
              1      18       34.09       500      610      700      900      950      970     1000      129      960     1100   
                                          VAR    BASINP    GEOM    SYMINP    ZMAT    AOBASIS   BASIS     P2S    ABASIS      S 
                                         1400     1410     1200     1210     1080     1600     1650     1700   
                                           T        V       H0       H01     AOSYM     SMH    MOLCAS    OPER   

 PROGRAMS   *          TOTAL         INT
 CPU TIMES  *          70.96       70.61
 REAL TIME  *          71.61 SEC
 DISK USED  *          34.67 MB (local),        9.04 GB (total)
 GA USED    *           0.00 MB       (max)       0.00 MB       (current)
 **********************************************************************************************************************************


 Program * Restricted Hartree-Fock

 Orbital guess generated from atomic densities. Full valence occupancy:   31

 Initial occupancy:  19

 NELEC=   38   SYM=1   MS2= 0   THRE=1.0D-08   THRD=3.2D-06   THRG=3.2D-06  HFMA2=F  DIIS_START=2   DIIS_MAX=10   DIIS_INCORE=F

 Level shifts:    0.00 (CLOSED)    0.00 (OPEN)    0.30 (GAP_MIN)

 ITER           ETOT              DE          GRAD        DDIFF     DIIS  NEXP   TIME(IT)  TIME(TOT)  DIAG
   1     -229.79457322    -229.79457322     0.00D+00     0.33D-01     0     0       2.49      4.88    start
   2     -229.85704478      -0.06247156     0.37D-02     0.40D-02     1     0       2.42      7.30    diag
   3     -229.89152993      -0.03448515     0.27D-02     0.16D-02     2     0       2.45      9.75    diag
   4     -229.89361787      -0.00208794     0.44D-03     0.42D-03     3     0       2.39     12.14    diag
   5     -229.89382221      -0.00020434     0.13D-03     0.15D-03     4     0       2.43     14.56    diag
   6     -229.89384548      -0.00002327     0.37D-04     0.59D-04     5     0       2.46     17.02    diag
   7     -229.89384899      -0.00000351     0.15D-04     0.23D-04     6     0       2.42     19.44    diag
   8     -229.89384959      -0.00000060     0.62D-05     0.93D-05     7     0       2.46     21.91    fixocc
   9     -229.89384968      -0.00000009     0.23D-05     0.37D-05     8     0       2.49     24.40    diag
  10     -229.89384968      -0.00000001     0.56D-06     0.11D-05     9     0       2.51     26.90    diag/orth
  11     -229.89384968      -0.00000000     0.15D-06     0.20D-06     0     0       2.55     29.45    diag

 Final occupancy:  19

 !RHF STATE 1.1 Energy               -229.893849682319
  RHF One-electron energy            -623.839495310089
  RHF Two-electron energy             236.276661855881
  RHF Kinetic energy                  229.684608615874
  RHF Nuclear energy                  157.668983771888
  RHF Virial quotient                  -1.000910992982

 !RHF STATE 1.1 Dipole moment           0.41553150     1.10897568     0.06735204
 Dipole moment /Debye                   1.05617573     2.81873501     0.17119181

 ELECTRON ORBITALS
 =================

  Orbital  Occupation    Energy    Cen Mu Typ  Coefficients
    1.1     2.00000   -20.55991     1  1  s        1.00050
    2.1     2.00000   -11.33587     4  1  s        1.00084
    3.1     2.00000   -11.25211     2  1  s        1.00025
    4.1     2.00000   -11.24098     3  1  s        0.99771
    5.1     2.00000   -11.22785     5  1  s        0.99820
    6.1     2.00000    -1.40430     1  2  s        0.81116    4  2  s        0.46130    4  1  py      -0.28442
    7.1     2.00000    -1.09349     2  2  s        0.53387    3  2  s        0.56928    5  2  s        0.40008
    8.1     2.00000    -0.98840     2  2  s       -0.47405    3  2  s        0.30083    4  2  s       -0.31356
                                    5  2  s        0.53988
    9.1     2.00000    -0.82312     3  2  s       -0.28119    4  2  s        0.49818    5  2  s        0.37558
                                    9  1  s        0.43594   11  1  s        0.25847
   10.1     2.00000    -0.75610     2  2  s       -0.25295    3  2  s        0.39744    4  2  s        0.30404
                                    5  2  s       -0.25541    6  1  s       -0.32134    8  1  s        0.42385
                                    9  1  s        0.25811   10  1  s       -0.33456
   11.1     2.00000    -0.68306     1  1  px       0.46164    4  1  px       0.44681    4  1  py      -0.26044
                                    9  1  s       -0.38177
   12.1     2.00000    -0.66064     1  1  py       0.42777    3  1  py       0.26558    4  1  py      -0.32752
                                    5  1  py       0.26154    7  1  s       -0.27898    8  1  s       -0.29783
                                   11  1  s       -0.35419
   13.1     2.00000    -0.62789     1  1  py       0.44436    2  1  pz       0.44128    4  1  px      -0.29836
                                    4  1  py      -0.29782    7  1  s        0.46020
   14.1     2.00000    -0.59523     1  1  py      -0.29505    2  1  py      -0.37025    3  1  px      -0.28311
                                    4  1  py       0.28683    5  1  py       0.34483    5  1  pz      -0.31638
                                    6  1  s       -0.41249   10  1  s        0.47964   11  1  s       -0.25680
   15.1     2.00000    -0.57388     1  1  pz       0.30737    3  1  px       0.45754    4  1  pz       0.27193
                                    5  1  px      -0.45455    7  1  s        0.26181    8  1  s       -0.29840
                                   11  1  s       -0.33073
   16.1     2.00000    -0.51056     1  1  pz       0.61276    2  1  pz      -0.31222    4  1  pz       0.36903
                                    6  1  s        0.28872    7  1  s       -0.34484
   17.1     2.00000    -0.50535     2  1  py       0.38246    3  1  py      -0.39456    3  1  pz       0.26435
                                    5  1  py       0.31986    6  1  s        0.32086    8  1  s        0.51698
                                   10  1  s        0.42223   11  1  s       -0.38839
   18.1     2.00000    -0.43066     1  1  px       0.70096    2  1  px       0.35712    4  1  px      -0.26525
                                    9  1  s        0.44189
   19.1     2.00000    -0.37367     3  1  py       0.28899    3  1  pz       0.40917    5  1  py       0.32663
                                    5  1  pz       0.42296


 HOMO     19.1    -0.373673 =     -10.1682eV
 LUMO     20.1     0.043493 =       1.1835eV
 LUMO-HOMO         0.417166 =      11.3517eV

 Orbitals saved in record  2100.2


 **********************************************************************************************************************************
 DATASETS  * FILE   NREC   LENGTH (MB)   RECORD NAMES
              1      18       34.09       500      610      700      900      950      970     1000      129      960     1100   
                                          VAR    BASINP    GEOM    SYMINP    ZMAT    AOBASIS   BASIS     P2S    ABASIS      S 
                                         1400     1410     1200     1210     1080     1600     1650     1700   
                                           T        V       H0       H01     AOSYM     SMH    MOLCAS    OPER   

              2       4        2.72       700     1000      520     2100   
                                         GEOM     BASIS   MCVARS     RHF  

 PROGRAMS   *          TOTAL      HF-SCF         INT
 CPU TIMES  *         100.49       29.51       70.61
 REAL TIME  *         101.95 SEC
 DISK USED  *          36.94 MB (local),        9.06 GB (total)
 GA USED    *           0.00 MB       (max)       0.00 MB       (current)
 **********************************************************************************************************************************


 PROGRAM * CCSD (Closed-shell coupled cluster)     Authors: C. Hampel, H.-J. Werner, 1991, M. Deegan, P.J. Knowles, 1992

                                  CCSD-F12 implementation by  H.-J. Werner, 2007

                   Density fitting integral evaluation by F.R. Manby, 2003,2007, G. Knizia, 2010


 Generating basis VTZ-F12-JKFIT
  Atom=O        basis=aug-cc-pVTZ/JKFIT
  Atom=C        basis=aug-cc-pVTZ/JKFIT
  Atom=H        basis=aug-cc-pVTZ/JKFIT
 Number of basis functions:     796

 Generating basis CC-PVTZ-F12_OPT
  Atom=O        basis=cc-pVTZ-F12_OPT
  Atom=C        basis=cc-pVTZ-F12_OPT
  Atom=H        basis=cc-pVTZ-F12_OPT
 Number of basis functions:     621

 Generating basis CC-PVTZ-F12-MP2FIT
  Atom=O        basis=aug-cc-pVTZ/MP2FIT
  Atom=C        basis=aug-cc-pVTZ/MP2FIT
  Atom=H        basis=aug-cc-pVTZ/MP2FIT
 Number of basis functions:     806


 Convergence thresholds:  THRVAR = 1.00D-08  THRDEN = 1.00D-06

 CCSD(T)     terms to be evaluated (factor= 1.000)


 Number of core orbitals:           5 (   5 )
 Number of closed-shell orbitals:  14 (  14 )
 Number of external orbitals:     354 ( 354 )

 Molecular orbitals read from record     2100.2  Type=RHF/CANONICAL (state 1.1)

 MP2-F12 correlation treatment (H.-J. Werner, 2006)
 ==================================================

 Using MP2-F12 with ansatz 3C(FIX)

 Using projected zeroth-order Hamiltonian (+Z)

 FOCKRIB=T FOCKRIC=T FOCKRIP=T CABSP=T CABSA=T CABSK=T CABSF=T GBC=F EBC=F DMAT=T NOFIK=T NOPAO=1 SOLVE=-1  USEPAO=0
 EXCH_A= T EXCH_B= F EXCH_C= F EXCH_P= F

 Geminal basis:    OPTFULL  GEM_TYPE=SLATER  BETA=1.0  NGEM=6

 Optimizing Gaussian exponents for each gem_beta

 Geminal optimization for beta= 1.0000
 Weight function:   m=0, omega= 1.4646

 Augmented Hessian optimization of geminal fit. Trust ratio= 0.40000
 Convergence reached after   2 iterations. Final gradient= 8.60D-16, Step= 4.23D-06, Delta= 1.28D-09

 Alpha:                 0.19532     0.81920     2.85917     9.50073    35.69989   197.79328
 Coeff:                 0.27070     0.30552     0.18297     0.10986     0.06810     0.04224


 All pairs explicitly correlated. Number of r12-pairs:          105

 Excluding core orbitals from MO domains

 AO(A)-basis ORBITAL           loaded. Number of functions:     373
 RI(R)-basis CC-PVTZ-F12/OPTRI loaded. Number of functions:     621
 DF-basis VTZ-F12/JKFIT        loaded. Number of functions:     796

 Screening thresholds:   THRAO=  1.00D-14  THRMO=  1.00D-14  THRPROD=  1.00D-14
                         THRSW=  1.00D-14  THROV=  1.00D-14  THRAOF12= 1.00D-08

 CPU time for Fock operators                      2.07 sec

 Construction of ABS:
 Smallest eigenvalue of S          4.48E-05  (threshold= 1.00E-08)
 Ratio eigmin/eigmax               4.72E-06  (threshold= 1.00E-09)
 Smallest eigenvalue of S kept     4.48E-05  (threshold= 4.48E-05, 0 functions deleted, 621 kept)

 Construction of CABS:
 Smallest eigenvalue of S          4.71E-07  (threshold= 1.00E-08)
 Ratio eigmin/eigmax               4.71E-07  (threshold= 1.00E-09)
 Smallest eigenvalue of S kept     4.71E-07  (threshold= 4.71E-07, 0 functions deleted, 621 kept)

 CPU time for CABS transformation                 0.30 sec
 CPU time for CABS singles                        0.61 sec

 CABS-singles contribution of  -0.00195533 patched into reference energy.
 New reference energy        -229.89580501

 AO(A)-basis ORBITAL           loaded. Number of functions:     373
 RI(R)-basis CC-PVTZ-F12/OPTRI loaded. Number of functions:     621
 DF-basis CC-PVTZ-F12/MP2FIT   loaded. Number of functions:     806

 Screening thresholds:   THRAO=  1.00D-14  THRMO=  1.00D-14  THRPROD=  1.00D-14
                         THRSW=  1.00D-14  THROV=  1.00D-14  THRAOF12= 1.00D-08

 CPU time for 3-index integral evaluation         4.19 sec
 CPU time for first  half transformation          0.58 sec (  6141.5 MFLOP/sec)
 CPU time for second half transformation          0.06 sec (  1324.3 MFLOP/sec)
 CPU time for sorting                             0.35 sec
 CPU time for fitting                             0.23 sec (  6053.5 MFLOP/sec)
 CPU time for tilde quantities                    0.24 sec (  7689.2 MFLOP/sec)
 CPU time for assembly                            2.66 sec ( 11180.1 MFLOP/sec)
 CPU time for tranop_f12                          3.38 sec ( 12469.5 MFLOP/sec)
 CPU time for f12 integrals (total)              18.11 sec, Elapsed time:     18.67 sec
 F12-matrices built in 11 passes.
 F12-matrices built in 11 passes.
 F12-matrices built in 11 passes.
 F12-matrices built in 11 passes.
 FC-matrix built in 11 passes.
 CPU time for f12 matrices (total)                2.14 sec, Elapsed time:      2.15 sec

 Diagonal F12 approximation with fixed coefficients:  TSING= 0.500,  TTRIP= 0.250 (scaled by -1/beta)

 DF-MP2-F12 energy corrections:
 ==============================
 Approx.                                    Singlet             Triplet             Total
 DF-MP2-F12/3*C(DX,FIX)                -0.070120788044     -0.007265441633     -0.077386229677
 DF-MP2-F12/3*C(FIX)                   -0.067236574554     -0.006978424201     -0.074214998756
 DF-MP2-F12/3C(FIX)                    -0.067205833387     -0.007191139112     -0.074396972499

 DF-MP2-F12 correlation energies:
 ================================
 Approx.                                    Singlet             Triplet             Ecorr            Total Energy
 DF-MP2                                -0.587498437188     -0.323128263462     -0.910626700651   -230.806431713418
 DF-MP2-F12/3*C(DX,FIX)                -0.657619225233     -0.330393705095     -0.988012930328   -230.883817943095
 DF-MP2-F12/3*C(FIX)                   -0.654735011743     -0.330106687664     -0.984841699406   -230.880646712173
 DF-MP2-F12/3C(FIX)                    -0.654704270576     -0.330319402574     -0.985023673150   -230.880828685917

 SCS-DF-MP2 energies (F_SING= 1.20000  F_TRIP= 0.62222  F_PARALLEL= 0.33333):
 ============================================================================
 SCS-DF-MP2                            -0.906055710780   -230.801860723547
 SCS-DF-MP2-F12/3*C(DX,FIX)            -0.994721375672   -230.890526388439
 SCS-DF-MP2-F12/3*C(FIX)               -0.991081730860   -230.886886743627
 SCS-DF-MP2-F12/3C(FIX)                -0.991177197404   -230.886982210170
 Symmetry transformation completed.

 Number of N-1 electron functions:              14
 Number of N-2 electron functions:             105
 Number of singly external CSFs:              4956
 Number of doubly external CSFs:          12283446
 Total number of CSFs:                    12288403

 Pair and operator lists are different

 Length of J-op  integral file:               1.66 GB
 Length of K-op  integral file:               1.97 GB
 Length of 3-ext integral record:             0.00 MB

 A further 50.18 Mwords of memory are needed for the triples to run. Increase memory to 139.76 Mwords.

 GLOBAL ERROR fehler on processor   0                                         
