
 Working directory              : /scratch/molpro/JOB
 Global scratch directory       : /scratch/molpro/JOB
 Wavefunction directory         : /home/user/wfu/
 Main file repository           : /scratch/molpro/JOB

 id        : dana

 Nodes     nprocs
 n017         1
 GA implementation: MPI file
 GA implementation (serial work in mppx): MPI file

 Using customized tuning parameters: mindgm=1; mindgv=20; mindgc=4; mindgr=1; noblas=0; minvec=7
 default implementation of scratch files=df  


 Variables initialized (1025), CPU time= 0.00 sec
 ***,hydrazine
 memory,752,m;
 
 geometry={angstrom;
  N         -0.66618100         -0.10626200         -0.25124200
  N          0.62988600          0.03883700          0.34636100
  H         -1.15861500          0.76652200         -0.12611900
  H         -1.20894100         -0.83797200          0.19214800
  H          1.26404800         -0.57046800         -0.15011100
  H          0.63122400         -0.23598200          1.32158100
 }
 
 basis=cc-pvtz
 
 {rhf;
 maxit,1000;
 wf,18,1,0}
 
 {casscf;
 wf,18,1,0;
 }
 
 {mrci;
 wf,18,1,0;
 }
 
 Commands initialized (840), CPU time= 0.01 sec, 684 directives.
 Default parameters read. Elapsed time= 0.25 sec

 Checking input...
 Passed
1


                                         ***  PROGRAM SYSTEM MOLPRO  ***
                                       Copyright, TTI GmbH Stuttgart, 2015
                                    Version 2022.3 linked Wed Nov 30 13:40:34 2022


 **********************************************************************************************************************************
 LABEL *   hydraz                                                                        
  64 bit serial version                                                                  DATE: 11-Jan-24          TIME: 09:15:01  
 **********************************************************************************************************************************

 SHA1:             e31ec9a5ea85254ab76f59d122cbdd51c71cf98b
 **********************************************************************************************************************************

 Memory per process:       752 MW
 Total memory per node:    752 MW

 GA preallocation disabled
 GA check disabled

 Variable memory set to 752.0 MW


 Geometry recognized as XYZ

 SETTING BASIS          =    CC-PVTZ


 Recomputing integrals since basis changed


 Using spherical harmonics

 Library entry N      S cc-pVTZ              selected for orbital group  1
 Library entry N      P cc-pVTZ              selected for orbital group  1
 Library entry N      D cc-pVTZ              selected for orbital group  1
 Library entry N      F cc-pVTZ              selected for orbital group  1
 Library entry H      S cc-pVTZ              selected for orbital group  2
 Library entry H      P cc-pVTZ              selected for orbital group  2
 Library entry H      D cc-pVTZ              selected for orbital group  2


 PROGRAM * SEWARD (Integral evaluation for generally contracted gaussian basis sets)     Author: Roland Lindh, 1990

 Geometry written to block  1 of record 700


 Point group  C1  



 ATOMIC COORDINATES

 NR  ATOM    CHARGE       X              Y              Z

   1  N       7.00   -1.258899639   -0.200806077   -0.474778571
   2  N       7.00    1.190312030    0.073391294    0.654527430
   3  H       1.00   -2.189465034    1.448516649   -0.238330369
   4  H       1.00   -2.284567391   -1.583537580    0.363107095
   5  H       1.00    2.388704528   -1.078028283   -0.283668678
   6  H       1.00    1.192840483   -0.445941350    2.497426142

 Bond lengths in Bohr (Angstrom)

 1-2  2.710932320  1-3  1.908435265  1-4  1.914678337  2-5  1.908434846  2-6  1.914677113
     ( 1.434563604)     ( 1.009900451)     ( 1.013204142)     ( 1.009900229)     ( 1.013203495)

 Bond angles

  1-2-5  107.54816500   1-2-6  112.00680552   2-1-3  107.54815079   2-1-4  112.00678846

  3-1-4  107.98091996   5-2-6  107.98089522

 NUCLEAR CHARGE:                   18
 NUMBER OF PRIMITIVE AOS:         162
 NUMBER OF SYMMETRY AOS:          148
 NUMBER OF CONTRACTIONS:          116   (  116A   )
 NUMBER OF INNER CORE ORBITALS:     0   (    0A   )
 NUMBER OF OUTER CORE ORBITALS:     2   (    2A   )
 NUMBER OF VALENCE ORBITALS:       12   (   12A   )


 NUCLEAR REPULSION ENERGY   41.57146182

 Eigenvalues of metric

         1 0.120E-02 0.184E-02 0.268E-02 0.288E-02 0.399E-02 0.465E-02 0.646E-02 0.784E-02


 Contracted 2-electron integrals neglected if value below      1.0D-11
 AO integral compression algorithm  1   Integral accuracy      1.0D-11

     112.460 MB (compressed) written to integral file ( 52.9%)


 NUMBER OF SORTED TWO-ELECTRON INTEGRALS:   23028291.     BUFFER LENGTH:  32768
 NUMBER OF SEGMENTS:   2  SEGMENT LENGTH:   15997996      RECORD LENGTH: 524288

 Memory used in sort:      16.56 MW

 SORT1 READ    26629611. AND WROTE    22792915. INTEGRALS IN     67 RECORDS. CPU TIME:     0.54 SEC, REAL TIME:     0.73 SEC
 SORT2 READ    22792915. AND WROTE    23028291. INTEGRALS IN    429 RECORDS. CPU TIME:     0.79 SEC, REAL TIME:     0.90 SEC

 FILE SIZES:   FILE 1:   143.0 MBYTE,  FILE 4:   281.1 MBYTE,   TOTAL:    424.1 MBYTE

 OPERATOR DM      FOR CENTER  0  COORDINATES:    0.000000    0.000000    0.000000


 **********************************************************************************************************************************
 DATASETS  * FILE   NREC   LENGTH (MB)   RECORD NAMES
              1      19      123.65       500      610      700      900      950      970     1000      129      960     1100   
                                          VAR    BASINP    GEOM    SYMINP    ZMAT    AOBASIS   BASIS     P2S    ABASIS      S 
                                         1400     1410     1200     1210     1080     1600     1650     1300     1700   
                                           T        V       H0       H01     AOSYM     SMH    MOLCAS    ERIS     OPER   

 PROGRAMS   *        TOTAL       INT
 CPU TIMES  *         4.39      4.12
 REAL TIME  *         5.80 SEC
 DISK USED  *       404.77 MB
 **********************************************************************************************************************************


 Program * Restricted Hartree-Fock

 Orbital guess generated from atomic densities. Full valence occupancy:   14

 Initial occupancy:   9

 NELEC=   18   SYM=1   MS2= 0   THRE=1.0D-08   THRD=3.2D-06   THRG=3.2D-06  HFMA2=F  DIIS_START=2   DIIS_MAX=10   DIIS_INCORE=F

 Level shifts:    0.00 (CLOSED)    0.00 (OPEN)    0.30 (GAP_MIN)

 ITER           ETOT              DE          GRAD        DDIFF     DIIS  NEXP   TIME(IT)  TIME(TOT)  DIAG
   1     -111.19747396    -111.19747396     0.00D+00     0.69D-01     0     0       0.34      0.66    start
   2     -111.22194011      -0.02446616     0.52D-02     0.70D-02     1     0       0.34      1.00    diag
   3     -111.22402299      -0.00208287     0.16D-02     0.17D-02     2     0       0.34      1.34    diag
   4     -111.22431576      -0.00029278     0.53D-03     0.57D-03     3     0       0.33      1.67    diag
   5     -111.22433833      -0.00002256     0.12D-03     0.15D-03     4     0       0.36      2.03    diag
   6     -111.22433981      -0.00000149     0.24D-04     0.43D-04     5     0       0.35      2.38    diag
   7     -111.22433995      -0.00000013     0.61D-05     0.14D-04     6     0       0.37      2.75    diag
   8     -111.22433996      -0.00000001     0.18D-05     0.44D-05     7     0       0.35      3.10    fixocc
   9     -111.22433996      -0.00000000     0.35D-06     0.10D-05     8     0       0.36      3.46    diag
  10     -111.22433996      -0.00000000     0.58D-07     0.12D-06     0     0       0.35      3.81    diag/orth

 Final occupancy:   9

 !RHF STATE 1.1 Energy               -111.224339957575
  RHF One-electron energy            -233.308315857841
  RHF Two-electron energy              80.512514082140
  RHF Kinetic energy                  111.067043292274
  RHF Nuclear energy                   41.571461818126
  RHF Virial quotient                  -1.001416231680

 !RHF STATE 1.1 Dipole moment          -0.23460866    -0.43614863     0.61471164
 Dipole moment /Debye                  -0.59631573    -1.10857925     1.56244115

 Orbital energies:

           1.1          2.1          3.1          4.1          5.1          6.1          7.1          8.1          9.1         10.1
    -15.563418   -15.562966    -1.249757    -1.006960    -0.673139    -0.663582    -0.602771    -0.413200    -0.405852     0.140808

          11.1
      0.170206


 HOMO      9.1    -0.405852 =     -11.0438eV
 LUMO     10.1     0.140808 =       3.8316eV
 LUMO-HOMO         0.546660 =      14.8754eV

 Orbitals saved in record  2100.2


 **********************************************************************************************************************************
 DATASETS  * FILE   NREC   LENGTH (MB)   RECORD NAMES
              1      19      123.65       500      610      700      900      950      970     1000      129      960     1100   
                                          VAR    BASINP    GEOM    SYMINP    ZMAT    AOBASIS   BASIS     P2S    ABASIS      S 
                                         1400     1410     1200     1210     1080     1600     1650     1300     1700   
                                           T        V       H0       H01     AOSYM     SMH    MOLCAS    ERIS     OPER   

              2       4        0.65       700     1000      520     2100   
                                         GEOM     BASIS   MCVARS     RHF  

 PROGRAMS   *        TOTAL   RHF-SCF       INT
 CPU TIMES  *         8.22      3.83      4.12
 REAL TIME  *         9.93 SEC
 DISK USED  *       404.77 MB
 **********************************************************************************************************************************

 PROGRAM * MULTI (Direct Multiconfiguration SCF)       Authors: P.J. Knowles, H.-J. Werner (1984)
                                                                D.A. Kreplin, P.J. Knowles, H.-J. Werner (2019)


 Number of closed-shell orbitals:   2 (    2)
 Number of active  orbitals:       12 (   12)
 Number of external orbitals:     102 (  102)

 State symmetry 1

 Number of active electrons:  14    Spin symmetry=Singlet   Space symmetry=1
 Number of states:             1
 Number of CSFs:          169884   (627264 determinants, 627264 intermediate states)

 Molecular orbitals read from record     2100.2  Type=RHF/CANONICAL  

 Wavefunction dump at record             2140.2

 Convergence thresholds  0.10E-04 (gradient)  0.10E-05 (energy)
 
 Number of orbital rotations:  1452  ( 24 closed/active, 204 closed/virtual, 0 active/active, 1224 active/virtual )
 Total number of variables:    628716
 
 Second-order MCSCF: L-BFGS accelerated
 
 ITER  MIC  NCI  NEG     ENERGY(VAR)    ENERGY(PROJ) ENERGY CHANGE       GRAD(0)  GRAD(ORB)   GRAD(CI)      STEP      TIME
   1   48   44    0   -111.23965246    -111.35875461   -0.11910215    0.02862912 0.00036657 0.00007899  0.18E+01     37.92
   2   21   32    0   -111.35718821    -111.35862248   -0.00143427    0.03698048 0.00014621 0.00005415  0.17E+00     64.50
   3   44   44    0   -111.35862380    -111.35862383   -0.00000002    0.00008871 0.00000000 0.00000001  0.10E-02    102.32

 CONVERGENCE REACHED!  Final gradient:    0.00000001 ( 0.85E-08)
                       Final energy:   -111.35862383
 
 First order charge density matrix for state 1.1 saved on record 2140.2 (density set 1)
 
 Results for state 1.1
 =====================
 !MCSCF STATE 1.1 Energy                      -111.358623825423
 Nuclear energy                                 41.57146182
 Kinetic energy                                111.43035505
 One electron energy                          -233.27696094
 Two electron energy                            80.34687529
 Virial ratio                                    1.99935627
 
 !MCSCF STATE 1.1 Dipole moment                 -0.21927965    -0.40765133     0.57454731
 Dipole moment /Debye                           -0.55735328    -1.03614633     1.46035361
 
 No non-zero expectation values
 
 
 Natural orbital dump at molpro section 2140.2 (Orbital set 2)


 **********************************************************************************************************************************
 DATASETS  * FILE   NREC   LENGTH (MB)   RECORD NAMES
              1      20      140.07       500      610      700      900      950      970     1000      129      960     1100   
                                          VAR    BASINP    GEOM    SYMINP    ZMAT    AOBASIS   BASIS     P2S    ABASIS      S 
                                         1400     1410     1200     1210     1080     1600     1650     1300     1700     1380   
                                           T        V       H0       H01     AOSYM     SMH    MOLCAS    ERIS     OPER     JKOP   

              2       5        1.27       700     1000      520     2100     2140   
                                         GEOM     BASIS   MCVARS     RHF     MCSCF   

 PROGRAMS   *        TOTAL    CASSCF   RHF-SCF       INT
 CPU TIMES  *       109.02    100.80      3.83      4.12
 REAL TIME  *       115.48 SEC
 DISK USED  *       404.77 MB
 **********************************************************************************************************************************


 PROGRAM * CI (Multireference internally contracted CI)     Authors: H.-J. Werner, P.J. Knowles, 1987


 Convergence thresholds:  THRVAR = 1.00D-08  THRDEN = 1.00D-06

 Number of optimized states: 1  Roots:    1
 Number of reference states: 1  Roots:    1

 Reference symmetry:                   1   Singlet 
 Number of electrons:                 18
 Maximum number of shells:             8
 Maximum number of spin couplings:   429

 Reference space:    58278 conf   169884 CSFs
 N elec internal:    58278 conf   169884 CSFs
 N-1 el internal:    69576 conf   339768 CSFs
 N-2 el internal:    73789 conf   608751 CSFs

 Number of electrons in valence space:                     14
 Maximum number of open shell orbitals in reference space: 10
 Maximum number of open shell orbitals in internal spaces: 14


 Number of core orbitals:           2 (   2 )
 Number of active  orbitals:       12 (  12 )
 Number of external orbitals:     102 ( 102 )

 Molecular orbitals read from record     2140.2  Type=MCSCF/NATURAL (state 1.1)

 Valence orbitals related to previous ones by unitary transformation. Operators transformed.


 Number of p-space configurations:   1

 Reference wavefunction optimized for reference space (refopt=1)

 State     Reference Energy 
     1      -111.35862383

 Number of blocks in overlap matrix:     2   Smallest eigenvalue:  0.20D-02
 Number of N-2 electron functions:     144
 Number of N-1 electron functions:  339768

 Number of internal configurations:               169884
 Number of singly external configurations:      34656336
 Number of doubly external configurations:        749700
 Total number of contracted configurations:     35575920
 Total number of uncontracted configurations: 3193606845

 Diagonal Coupling coefficients finished.               Storage:76906958 words, CPU-Time:    601.48 seconds.
 Energy denominators for pairs finished in 1 passes.    Storage: 5049814 words, CPU-time:      0.05 seconds.

  ITER. STATE  ROOT     SQ.NORM     CORR.ENERGY   TOTAL ENERGY   ENERGY CHANGE       DEN1      VAR(S)    VAR(P)      TIME
    1     1     1     1.00000000     0.00000000  -111.35862383    -0.00000000    -0.29284106  0.33D-01  0.34D-01   670.99
    2     1     1     1.06973337    -0.29897105  -111.65759487    -0.29897105    -0.01148093  0.16D-02  0.12D-02  3241.29
    3     1     1     1.07438839    -0.31054616  -111.66916998    -0.01157511    -0.00083412  0.11D-03  0.80D-04  5877.19
    4     1     1     1.07677137    -0.31144419  -111.67006801    -0.00089803    -0.00008702  0.14D-04  0.70D-05  8476.82
    5     1     1     1.07738762    -0.31153479  -111.67015862    -0.00009060    -0.00000898  0.15D-05  0.67D-06 11126.57
    6     1     1     1.07745141    -0.31154417  -111.67016799    -0.00000938    -0.00000114  0.20D-06  0.75D-07 13742.57
    7     1     1     1.07745137    -0.31154533  -111.67016916    -0.00000117    -0.00000017  0.32D-07  0.10D-07 16483.09
    8     1     1     1.07745567    -0.31154550  -111.67016933    -0.00000017    -0.00000003  0.57D-08  0.17D-08 19171.53


 =====================================
 Analysis of CPU times by interactions
 =====================================

       I      S      P

 I   0.3%
 S   0.3%   3.7%
 P   3.7%  75.1%  13.6%

 Initialization:   3.2%
 Other:            0.1%

 Total CPU:    19171.5 seconds
 =====================================



 Reference coefficients greater than 0.0500000
 =============================================
 222222200000           0.9380331
 222222020000          -0.0804438
 222/\2200/0\          -0.0651236
 22/22\20/0\0          -0.0603143


 RESULTS FOR STATE 1.1
 =====================

 Coefficient of reference function:   C(0) = 0.96307534 (fixed)   0.96338592 (relaxed)

 Energy contributions of configuration classes

 CLASS          SQ.NORM        ECORR1        ECORR2
 +++++++++++++++++++++++++++++++++++++++++++++++++++
 Internals    0.00064508   -0.00000000   -0.00018646
 Singles      0.03352932   -0.10741619   -0.10932216
 Pairs        0.04397631   -0.20412925   -0.20203689
 Total        1.07815071   -0.31154545   -0.31154550
 +++++++++++++++++++++++++++++++++++++++++++++++++++


 Reference energy                    -111.35862383
 Nuclear energy                        41.57146182
 Kinetic energy                       111.66276123
 One electron energy                 -233.07084768
 Two electron energy                   79.82921653
 Virial quotient                       -1.00006634
 Correlation energy                    -0.31154550
 !MRCI STATE 1.1 Energy              -111.670169330072

 Properties without orbital relaxation:

 !MRCI STATE 1.1 Dipole moment         -0.22179516    -0.41232778     0.58113832
 Dipole moment /Debye                  -0.56374707    -1.04803268     1.47710627

 Cluster corrected energies          -111.69451683 (Davidson, fixed reference)
 Cluster corrected energies          -111.69430030 (Davidson, relaxed reference)

 Cluster corrected energies          -111.69225395 (Pople, fixed reference)
 Cluster corrected energies          -111.69204637 (Pople, relaxed reference)



 **********************************************************************************************************************************
 DATASETS  * FILE   NREC   LENGTH (MB)   RECORD NAMES
              1      20      140.07       500      610      700      900      950      970     1000      129      960     1100   
                                          VAR    BASINP    GEOM    SYMINP    ZMAT    AOBASIS   BASIS     P2S    ABASIS      S 
                                         1400     1410     1200     1210     1080     1600     1650     1300     1700     1380   
                                           T        V       H0       H01     AOSYM     SMH    MOLCAS    ERIS     OPER     JKOP   

              2       5        1.27       700     1000      520     2100     2140   
                                         GEOM     BASIS   MCVARS     RHF     MCSCF   

 PROGRAMS   *        TOTAL      MRCI    CASSCF   RHF-SCF       INT
 CPU TIMES  *     19402.50  19293.48    100.80      3.83      4.12
 REAL TIME  *     19521.65 SEC
 DISK USED  *         4.92 GB
 **********************************************************************************************************************************

 MRCI/cc-pVTZ energy=   -111.670169330072

            MRCI          CASSCF         RHF-SCF
   -111.67016933   -111.35862383   -111.22433996
 **********************************************************************************************************************************
 Molpro calculation terminated
