 Checking input...
 Passed
1


                                         ***  PROGRAM SYSTEM MOLPRO  ***
                                       Copyright, TTI GmbH Stuttgart, 2015
                                    Version 2022.2 linked Thu Sep 29 13:37:28 2022


 **********************************************************************************************************************************
 LABEL *   N2H3                                                                          
  64 bit mpp version                                                                     DATE: 02-Jul-24          TIME: 09:05:00  
 ... [trimmed for fixture] ...
 **********************************************************************************************************************************

 MRCI/aug-cc-pVTZ energy=   -111.546707078743

            MRCI          CASSCF          HF-SCF
   -111.54670708   -111.22754843   -111.08202629
 **********************************************************************************************************************************
 Molpro calculation terminated
