
 Working directory              : /scratch/molpro/JOB
 Global scratch directory       : /scratch/molpro/JOB
 Wavefunction directory         : /home/user/wfu/
 Main file repository           : /scratch/molpro/JOB

 id        : dana

 Nodes                   nprocs
 n172.hpc.example   11
 Distribution of processes:   nprocs(total)=   12   nprocs(compute)=   11   nprocs(helper)=    1
 GA implementation: MPI file
 GA implementation (serial work in mppx): MPI file

 Using customized tuning parameters: mindgm=1; mindgv=20; mindgc=4; mindgr=1; noblas=0; minvec=7
 default implementation of scratch files=sf  


 Variables initialized (1066), CPU time= 0.01 sec
 ***,HCCO[38]
 memory,Total=1313,m;
 
 geometry={angstrom;
 O       0.00000000    0.00000000    1.19728100
 C       0.00000000    0.00000000   -1.23490000
 C       0.00000000    0.00000000    0.02138900
 H       0.00000000    0.00000000   -2.29718500}
 
 gprint,orbitals;
 
 basis=cc-pvtz-f12
 
 
 
 int;
 
 {hf;
  maxit,999;
  wf,spin=1,charge=0;
 }
 
 uccsd(t)-f12;
 
 
 

 Commands initialized (848), CPU time= 0.04 sec, 732 directives.
 Default parameters read. Elapsed time= 0.15 sec

 Checking input...
 Passed
1


                                         ***  PROGRAM SYSTEM MOLPRO  ***
                                       Copyright, TTI GmbH Stuttgart, 2015
                                  Version 2026.1 linked Wed Jun  3 18:57:24 2026


 **********************************************************************************************************************************
 LABEL *   HCCO[38]                                                                                                                                                      
                                                                                         DATE: 19-Jul-26          TIME: 12:55:40  
 **********************************************************************************************************************************

 SHA1:             6d9f1312673b6313bee3f063234a8989bae25437
 **********************************************************************************************************************************

 Memory per process:        90 MW
 Total memory per node:   1313 MW
 Total GA space:           328 MW

 GA preallocation disabled
 GA check enabled

 Variable memory set to 89.5 MW


 Geometry recognized as XYZ


 SETTING BASIS          =    CC-PVTZ-F12


 Using spherical harmonics

 Library entry O      S cc-pVTZ-F12          selected for orbital group  1
 Library entry O      P cc-pVTZ-F12          selected for orbital group  1
 Library entry O      D cc-pVTZ-F12          selected for orbital group  1
 Library entry O      F cc-pVTZ-F12          selected for orbital group  1
 Library entry C      S cc-pVTZ-F12          selected for orbital group  2
 Library entry C      P cc-pVTZ-F12          selected for orbital group  2
 Library entry C      D cc-pVTZ-F12          selected for orbital group  2
 Library entry C      F cc-pVTZ-F12          selected for orbital group  2
 Library entry H      S cc-pVTZ-F12          selected for orbital group  3
 Library entry H      P cc-pVTZ-F12          selected for orbital group  3
 Library entry H      D cc-pVTZ-F12          selected for orbital group  3


 PROGRAM * SEWARD (Integral evaluation for generally contracted gaussian basis sets)     Author: Roland Lindh, 1990

 Geometry written to block  1 of record 700


 Point group  C2v 



 ATOMIC COORDINATES

 NR  ATOM    CHARGE       X              Y              Z

   1  O       8.00    0.000000000    0.000000000    2.262533184
   2  C       6.00    0.000000000    0.000000000   -2.333622791
   3  C       6.00    0.000000000    0.000000000    0.040419352
   4  H       1.00    0.000000000    0.000000000   -4.341050508

 Bond lengths in Bohr (Angstrom)

 1-3  2.222113832  2-3  2.374042143  2-4  2.007427716
     ( 1.175892000)     ( 1.256289000)     ( 1.062285000)

 Bond angles

  1-3-2  180.00000000   3-2-4  180.00000000

 NUCLEAR CHARGE:                   21
 NUMBER OF PRIMITIVE AOS:         237
 NUMBER OF SYMMETRY AOS:          209
 NUMBER OF CONTRACTIONS:          177   (   75A1  +   43B1  +   43B2  +   16A2  )
 NUMBER OF INNER CORE ORBITALS:     0   (    0A1  +    0B1  +    0B2  +    0A2  )
 NUMBER OF OUTER CORE ORBITALS:     3   (    3A1  +    0B1  +    0B2  +    0A2  )
 NUMBER OF VALENCE ORBITALS:       13   (    7A1  +    3B1  +    3B2  +    0A2  )


 NUCLEAR REPULSION ENERGY 52.77834043

 EXTRA SYMMETRY OF AOS IN SYMMETRY 1:   1 1 1 1 1 1 1 1 1 1   1 1 1 2 1 2 1 2 1 2   1 2 1 1 1 1 1 1 1 1   1 1 1 1 1 2 1 2 1 2
                                        1 2 1 2 1 1 1 1 1 1   1 1 1 1 1 1 1 2 1 2   1 2 1 2 1 2 1 1 1 1   1 1 1 1 2
 EXTRA SYMMETRY OF AOS IN SYMMETRY 2:   1 1 1 1 1 1 1 1 1 1   2 1 2 1 1 1 1 1 1 1   1 1 1 2 1 2 1 1 1 1   1 1 1 1 1 1 2 1 2 1
                                        1 1 1
 EXTRA SYMMETRY OF AOS IN SYMMETRY 3:   1 1 1 1 1 1 1 1 1 1   2 1 2 1 1 1 1 1 1 1   1 1 1 2 1 2 1 1 1 1   1 1 1 1 1 1 2 1 2 1
                                        1 1 1

 Eigenvalues of metric

         1 0.174E-04 0.835E-04 0.114E-03 0.168E-03 0.203E-03 0.422E-03 0.476E-03 0.539E-03
         2 0.225E-03 0.531E-03 0.661E-03 0.790E-03 0.470E-02 0.838E-02 0.136E-01 0.202E-01
         3 0.225E-03 0.531E-03 0.661E-03 0.790E-03 0.470E-02 0.838E-02 0.136E-01 0.202E-01
         4 0.179E-01 0.848E-01 0.173E+00 0.218E+00 0.255E+00 0.324E+00 0.518E+00 0.573E+00


 Contracted 2-electron integrals neglected if value below      1.0D-12
 AO integral compression algorithm  1   Integral accuracy      1.0D-12

     168.296 MB (compressed) written to integral file ( 53.6%)

     Node minimum: 12.059 MB, node maximum: 18.612 MB


 NUMBER OF SORTED TWO-ELECTRON INTEGRALS:    2948435.     BUFFER LENGTH:  32768
 NUMBER OF SEGMENTS:   1  SEGMENT LENGTH:    2948435      RECORD LENGTH: 524288

 Memory used in sort:       3.51 MW

 SORT1 READ    39177117. AND WROTE     2440224. INTEGRALS IN      7 RECORDS. CPU TIME:     0.79 SEC, REAL TIME:     0.80 SEC
 SORT2 READ    26168892. AND WROTE    32420337. INTEGRALS IN    660 RECORDS. CPU TIME:     0.07 SEC, REAL TIME:     0.07 SEC

 Node minimum:     2936545.  Node maximum:     2961214. integrals

 OPERATOR DM      FOR CENTER  0  COORDINATES:    0.000000    0.000000    0.000000


 **********************************************************************************************************************************
 DATASETS  * FILE   NREC   LENGTH (MB)   RECORD NAMES
              1      18       29.44       500      610      700      900      950      970     1000      129      960     1100   
                                          VAR    BASINP    GEOM    SYMINP    ZMAT    AOBASIS   BASIS     P2S    ABASIS      S 
                                         1400     1410     1200     1210     1080     1600     1650     1700   
                                           T        V       H0       H01     AOSYM     SMH    MOLCAS    OPER   

 PROGRAMS   *          TOTAL         INT
 CPU TIMES  *           1.58        1.36
 REAL TIME  *           1.65 SEC
 DISK USED  *          29.85 MB (local),      466.29 MB (total)
 GA USED    *           0.00 MB       (max)       0.00 MB       (current)
 **********************************************************************************************************************************


 Program * Restricted Hartree-Fock

 Orbital guess generated from atomic densities. Full valence occupancy:   10   3   3   0

 Initial alpha occupancy:   7   2   2   0
 Initial beta  occupancy:   7   2   1   0

 NELEC=   21   SYM=3   MS2= 1   THRE=1.0D-08   THRD=3.2D-06   THRG=3.2D-06  HFMA2=F  DIIS_START=2   DIIS_MAX=10   DIIS_INCORE=F

 Level shifts:    0.00 (CLOSED)    0.00 (OPEN)    0.30 (GAP_MIN)

 ITER           ETOT              DE          GRAD        DDIFF     DIIS  NEXP   TIME(IT)  TIME(TOT)  DIAG
   1     -151.11157148    -151.11157148     0.00D+00     0.90D-01     0     0       0.02      0.04    start
   2     -151.12942633      -0.01785484     0.70D-02     0.75D-02     1     0       0.02      0.06    diag2
   3     -151.14006486      -0.01063854     0.46D-02     0.35D-02     2     0       0.02      0.08    diag2
   4     -151.14132638      -0.00126151     0.11D-02     0.92D-03     3     0       0.02      0.09    diag2
   5     -151.14174872      -0.00042234     0.38D-03     0.45D-03     4     0       0.01      0.11    diag2
   6     -151.14197093      -0.00022221     0.21D-03     0.31D-03     5     0       0.02      0.12    diag2
   7     -151.14207505      -0.00010412     0.12D-03     0.31D-03     6     0       0.02      0.14    diag2
   8     -151.14209112      -0.00001607     0.48D-04     0.18D-03     7     0       0.02      0.15    fixocc
   9     -151.14209163      -0.00000051     0.11D-04     0.32D-04     8     0       0.02      0.17    diag2
  10     -151.14209169      -0.00000006     0.38D-05     0.83D-05     9     0       0.02      0.19    diag2/orth
  11     -151.14209171      -0.00000002     0.24D-05     0.56D-05     9     0       0.02      0.21    diag2
  12     -151.14209172      -0.00000000     0.79D-06     0.29D-05     9     0       0.02      0.23    diag2
  13     -151.14209172      -0.00000000     0.31D-06     0.41D-06     0     0       0.02      0.25    diag

 Final alpha occupancy:   7   2   2   0
 Final beta  occupancy:   7   2   1   0

 !RHF STATE 1.3 Energy               -151.142091715765
  RHF One-electron energy            -309.638959811697
  RHF Two-electron energy             105.718527661339
  RHF Kinetic energy                  150.964896233928
  RHF Nuclear energy                   52.778340434592
  RHF Virial quotient                  -1.001173752881

 !RHF STATE 1.3 Dipole moment           0.00000000     0.00000000    -1.07439805
 Dipole moment /Debye                   0.00000000     0.00000000    -2.73084745

 ELECTRON ORBITALS
 =================

  Orbital  Occupation    Energy    Cen Mu Typ  Coefficients
    1.1     2.00000   -20.61374     1  1  s        1.00063
    2.1     2.00000   -11.37760     3  1  s        1.00045
    3.1     2.00000   -11.28019     2  1  s        1.00027
    4.1     2.00000    -1.45269     1  2  s        0.82354    3  2  s        0.46408    3  1  pz       0.31378
    5.1     2.00000    -1.05463     2  2  s        0.71984    2  1  pz       0.28261    3  2  s        0.55889
                                    3  1  pz      -0.46080
    6.1     2.00000    -0.76505     1  2  s       -0.25895    1  1  pz      -0.34969    2  2  s       -0.38939
                                    2  1  pz       0.53209    3  2  s        0.42430    4  1  s       -0.68954
    7.1     2.00000    -0.71207     1  2  s        0.34287    1  1  pz       0.68995    2  1  pz       0.40771
                                    3  1  pz      -0.54543    4  1  s       -0.38254
    1.2     2.00000    -0.63400     1  1  px       0.73387    3  1  px       0.51873
    2.2     2.00000    -0.38864     1  1  px      -0.49518    2  1  px       0.71175    3  1  px       0.32292
    1.3     2.00000    -0.60309     1  1  py       0.74783    3  1  py       0.51081
    2.3     1.00000    -0.43853     1  1  py      -0.37481    2  1  py       0.78326    3  1  py       0.32583


 HOMO      2.2    -0.388641 =     -10.5755eV
 LUMO      8.1     0.038348 =       1.0435eV
 LUMO-HOMO         0.426989 =      11.6190eV

 Orbitals saved in record  2100.2


 **********************************************************************************************************************************
 DATASETS  * FILE   NREC   LENGTH (MB)   RECORD NAMES
              1      18       29.46       500      610      700      900      950      970     1000      129      960     1100   
                                          VAR    BASINP    GEOM    SYMINP    ZMAT    AOBASIS   BASIS     P2S    ABASIS      S 
                                         1400     1410     1200     1210     1080     1600     1650     1700   
                                           T        V       H0       H01     AOSYM     SMH    MOLCAS    OPER   

              2       4        0.75       700     1000      520     2100   
                                         GEOM     BASIS   MCVARS     RHF  

 PROGRAMS   *          TOTAL      HF-SCF         INT
 CPU TIMES  *           1.89        0.31        1.36
 REAL TIME  *           3.06 SEC
 DISK USED  *          30.30 MB (local),      471.23 MB (total)
 GA USED    *           0.00 MB       (max)       0.00 MB       (current)
 **********************************************************************************************************************************


 PROGRAM * CCSD (Unrestricted open-shell coupled cluster)     Authors: C. Hampel, H.-J. Werner, 1991, M. Deegan, P.J. Knowles, 1992

                           UCCSD-F12 implementation by G. Knizia and H.-J. Werner, 2008

                   Density fitting integral evaluation by F.R. Manby, 2003,2007, G. Knizia, 2010


 Generating basis VTZ-F12-JKFIT
  Atom=O        basis=aug-cc-pVTZ/JKFIT
  Atom=C        basis=aug-cc-pVTZ/JKFIT
  Atom=H        basis=aug-cc-pVTZ/JKFIT
 Number of basis functions:     358

 Generating basis CC-PVTZ-F12_OPT
  Atom=O        basis=cc-pVTZ-F12_OPT
  Atom=C        basis=cc-pVTZ-F12_OPT
  Atom=H        basis=cc-pVTZ-F12_OPT
 Number of basis functions:     266

 Generating basis CC-PVTZ-F12-MP2FIT
  Atom=O        basis=aug-cc-pVTZ/MP2FIT
  Atom=C        basis=aug-cc-pVTZ/MP2FIT
  Atom=H        basis=aug-cc-pVTZ/MP2FIT
 Number of basis functions:     364


 Convergence thresholds:  THRVAR = 1.00D-08  THRDEN = 1.00D-06

 CCSD(T)     terms to be evaluated (factor= 1.000)


 Number of core orbitals:           3 (   3   0   0   0 )
 Number of closed-shell orbitals:   7 (   4   2   1   0 )
 Number of active  orbitals:        1 (   0   0   1   0 )
 Number of external orbitals:     166 (  68  41  41  16 )

 Memory could be reduced to 19.50 Mwords without degradation in triples

 Number of N-1 electron functions:              15
 Number of N-2 electron functions:             105
 Number of singly external CSFs:               834
 Number of doubly external CSFs:            587427
 Total number of CSFs:                      588261

 Molecular orbitals read from record     2100.2  Type=RHF/CANONICAL (state 1.3)

 Integral transformation finished. Total CPU:       0.34 sec, npass=  1 Memory used:      2.07 MW

 Geminal basis:    OPTFULL  GEM_TYPE=SLATER  BETA=1.0  NGEM=6

 Optimizing Gaussian exponents for each gem_beta

 Geminal optimization for beta= 1.0000
 Weight function:   m=0, omega= 1.4646

 Augmented Hessian optimization of geminal fit. Trust ratio= 0.40000
 Convergence reached after   2 iterations. Final gradient= 8.31D-16, Step= 4.30D-06, Delta= 1.28D-09

 Alpha:                 0.19532     0.81920     2.85917     9.50073    35.69989   197.79328
 Coeff:                 0.27070     0.30552     0.18297     0.10986     0.06810     0.04224


 WFN_F12=FIX,EG    DECOUPLE_EXPL=F   HYBRID=0    NOX=F   SEMIINT_F12=T   CORE_SINGLES=F


 AO(A)-basis ORBITAL           loaded. Number of functions:     177
 RI(R)-basis CC-PVTZ-F12/OPTRI loaded. Number of functions:     266
 DF-basis VTZ-F12/JKFIT        loaded. Number of functions:     358

 Screening thresholds:   THRAO=  1.00D-14  THRMO=  1.00D-14  THRPROD=  1.00D-14
                         THRSW=  1.00D-14  THROV=  1.00D-14  THRAOF12= 1.00D-08

 CPU time for one-electron matrices               0.28 sec

 Construction of ABS:
 Pseudo-inverse stability          4.36E-12
 Smallest eigenvalue of S          1.09E-04  (threshold= 1.00E-08)
 Ratio eigmin/eigmax               1.69E-05  (threshold= 1.00E-09)
 Smallest eigenvalue of S kept     1.09E-04  (threshold= 1.09E-04, 0 functions deleted, 266 kept)

 Construction of CABS:
 Pseudo-inverse stability          5.79E-10
 Smallest eigenvalue of S          1.40E-07  (threshold= 1.00E-08)
 Ratio eigmin/eigmax               1.40E-07  (threshold= 1.00E-09)
 Smallest eigenvalue of S kept     1.40E-07  (threshold= 1.40E-07, 0 functions deleted, 266 kept)

 CPU time for basis constructions                 0.03 sec
 Fock operators(MO) rebuilt from dump record.
 CPU time for Fock operator transformation        0.10 sec

                                      TOTAL          ALPHA          BETA    
  Singles Contributions MO        -0.003202969   -0.001613274   -0.001589695
  Singles Contributions CABS      -0.000986768   -0.000532150   -0.000454618
  Pure DF-RHF relaxation          -0.000975112

 CPU time for RHF CABS relaxation                 0.06 sec
 CPU time for singles (tot)                       0.13 sec

 AO(A)-basis ORBITAL           loaded. Number of functions:     177
 RI(R)-basis CC-PVTZ-F12/OPTRI loaded. Number of functions:     266
 DF-basis CC-PVTZ-F12/MP2FIT   loaded. Number of functions:     364

 Screening thresholds:   THRAO=  1.00D-14  THRMO=  1.00D-14  THRPROD=  1.00D-14
                         THRSW=  1.00D-14  THROV=  1.00D-14  THRAOF12= 1.00D-08

 CPU time for transformed integrals               1.37 sec
 CPU time for F12 matrices                        0.91 sec

 Diagonal F12 ansatz with fixed amplitudes:   TS= 0.5000  TT= 0.2500  TN= 0.3750

 ITER.     SQ.NORM      CORR.ENERGY   TOTAL ENERGY  ENERGY CHANGE      VAR         CPU   MICRO    DIIS
   1      1.16109787    -0.57798294  -151.72104976    -5.7896E-01   1.59E-01      0.02  1  1  1   0  0
   2      1.16062920    -0.57711665  -151.72018348     8.6628E-04   8.13E-05      0.07  0  0  0   1  1
   3      1.16081098    -0.57728402  -151.72035085    -1.6736E-04   4.06E-07      0.14  0  0  0   2  2
   4      1.16081390    -0.57728466  -151.72035149    -6.4343E-07   1.37E-09      0.23  0  0  0   3  3

 - - Continuing with F12/conv. amplitude coupling turned on.

   5      1.16074340    -0.57725419  -151.72032102     2.9827E-05   3.48E-05      0.30  1  1  1   1  1
   6      1.16074294    -0.57725421  -151.72032104    -2.2785E-08   5.66E-10      0.39  1  1  1   2  2

 CPU time for iterative RMP2-F12                  0.39 sec


 DF-RMP2-F12 doubles corrections:
 - - - - - - - - - - - - - - - - 
  Approx.                             TOTAL           A-B            A-A            B-B    
  RMP2-F12/3C(FIX)                -0.044299834   -0.041173796   -0.001788139   -0.001337899
  RMP2-F12/3*C(FIX)               -0.044330282   -0.041289486   -0.001743174   -0.001297622
  RMP2-F12/3*C(DX)                -0.044492199   -0.041430794   -0.001753705   -0.001307700
  RMP2-F12/3*C(FIX,DX)            -0.046705812   -0.043446924   -0.001853441   -0.001405447

 DF-RMP2-F12 doubles energies:
 - - - - - - - - - - - - - - -
  Approx.                             TOTAL           A-B            A-A            B-B    
  RMP2                            -0.529751411   -0.394362265   -0.075519803   -0.059869343
  RMP2-F12/3C(FIX)                -0.574051245   -0.435536061   -0.077307942   -0.061207242
  RMP2-F12/3*C(FIX)               -0.574081693   -0.435651751   -0.077262977   -0.061166965
  RMP2-F12/3*C(DX)                -0.574243610   -0.435793059   -0.077273508   -0.061177043
  RMP2-F12/3*C(FIX,DX)            -0.576457223   -0.437809189   -0.077373244   -0.061274790


  Reference energy                   -151.142091715766
  CABS relaxation correction to RHF    -0.000975111998
  New reference energy               -151.143066827764

  RMP2-F12 singles (MO) energy         -0.003202969035
  RMP2-F12 pair energy                 -0.574051244964
  RMP2-F12 correlation energy          -0.577254213999

 !RMP2-F12/3C(FIX) energy            -151.720321041763

 Starting RMP2 calculation

 ITER.      SQ.NORM     CORR.ENERGY   TOTAL ENERGY   ENERGY CHANGE        DEN1      VAR(S)    VAR(P)  DIIS     TIME
   1      1.15849935    -0.53071275  -151.67280446    -0.53071275    -0.00201839  0.27D-04  0.87D-03  1  1      3.87
   2      1.16070614    -0.53290235  -151.67499407    -0.00218960    -0.00000623  0.55D-06  0.32D-05  2  2      3.91
   3      1.16080962    -0.53295842  -151.67505013    -0.00005606    -0.00000003  0.12D-07  0.11D-07  3  3      3.95
   4      1.16081145    -0.53295862  -151.67505033    -0.00000020    -0.00000000  0.23D-09  0.38D-10  4  4      4.00

 Norm of t1 vector:      0.04907160      S-energy:    -0.00320292      T1 diagnostic:  0.00069670
 Norm of t2 vector:      0.39799929      P-energy:    -0.52975570
                                         Alpha-Beta:  -0.39454298
                                         Alpha-Alpha: -0.07540910
                                         Beta-Beta:   -0.05980362

 Spin contamination <S**2-Sz**2-Sz>     0.00027339
  Reference energy                   -151.142091715766
  CABS singles correction              -0.000975111998
  New reference energy               -151.143066827764
  RHF-RMP2 correlation energy          -0.532958617824
 !RHF-RMP2 energy                    -151.676025445588

  F12/3C(FIX) correction               -0.044299834270
  RHF-RMP2-F12 correlation energy      -0.577258452095
 !RHF-RMP2-F12 total energy          -151.720325279859

 Starting UCCSD calculation

 ITER.      SQ.NORM     CORR.ENERGY   TOTAL ENERGY   ENERGY CHANGE        DEN1      VAR(S)    VAR(P)  DIIS     TIME
   1      1.15086626    -0.51127331  -151.65336503    -0.51127331    -0.01665315  0.52D-02  0.27D-02  1  1      4.29
   2      1.16541022    -0.52531264  -151.66740436    -0.01403933    -0.00201557  0.34D-03  0.65D-03  2  2      4.54
   3      1.17349129    -0.52772893  -151.66982065    -0.00241629    -0.00044085  0.35D-03  0.64D-04  3  3      4.80
   4      1.17958881    -0.52955600  -151.67164772    -0.00182707    -0.00013175  0.96D-04  0.23D-04  4  4      5.06
   5      1.18456757    -0.53025238  -151.67234410    -0.00069638    -0.00004281  0.39D-04  0.51D-05  5  5      5.30
   6      1.18825607    -0.53051930  -151.67261102    -0.00026692    -0.00000890  0.53D-05  0.19D-05  6  6      5.55
   7      1.19001894    -0.53067591  -151.67276763    -0.00015661    -0.00000142  0.85D-06  0.28D-06  6  1      5.80
   8      1.19037038    -0.53067508  -151.67276680     0.00000083    -0.00000025  0.79D-07  0.84D-07  6  3      6.10
   9      1.19047705    -0.53069712  -151.67278884    -0.00002204    -0.00000005  0.22D-07  0.14D-07  6  2      6.39
  10      1.19048404    -0.53069308  -151.67278479     0.00000404    -0.00000001  0.48D-08  0.31D-08  6  5      6.64
  11      1.19050370    -0.53069500  -151.67278671    -0.00000192    -0.00000000  0.10D-08  0.62D-09  6  4      6.90
  12      1.19050502    -0.53069439  -151.67278611     0.00000060    -0.00000000  0.26D-09  0.14D-09  6  6      7.18

 Norm of t1 vector:      0.15965953      S-energy:    -0.00408437      T1 diagnostic:  0.02623350
                                                                       D1 diagnostic:  0.08444892
                                                                       D2 diagnostic:  0.17486375 (internal)
 Norm of t2 vector:      0.40621897      P-energy:    -0.52661002
                                         Alpha-Beta:  -0.40750774
                                         Alpha-Alpha: -0.06670491
                                         Beta-Beta:   -0.05239737

 Singles amplitudes (print threshold =  0.500E-01):

         I         SYM. A    A   T(IA) [Beta-Beta]

         7         3         1      0.11942880

 Spin contamination <S**2-Sz**2-Sz>     0.00085168

 Memory could be reduced to 20.57 Mwords without degradation in triples


 RESULTS
 =======

  Reference energy                   -151.142091715766
  CABS relaxation correction to RHF    -0.000975111998
  New reference energy               -151.143066827764

  F12 corrections for ansatz 3C(FIX) added to UCCSD energy. Coupling mode: 15

  UCCSD-F12a singles energy            -0.004084374500
  UCCSD-F12a pair energy               -0.570509364445
  UCCSD-F12a correlation energy        -0.574593738944
  Triples (T) contribution             -0.027293686086
  Total correlation energy             -0.601887425030

  RHF-UCCSD-F12a energy              -151.717660566708
  RHF-UCCSD[T]-F12 energy            -151.746961763107
  RHF-UCCSD-T-F12a energy            -151.744494444191
 !RHF-UCCSD(T)-F12 energy            -151.744954252794

  F12 corrections for ansatz 3C(FIX) added to UCCSD energy. Coupling mode: 15

  UCCSD-F12b singles energy            -0.004084374500
  UCCSD-F12b pair energy               -0.562609005715
  UCCSD-F12b correlation energy        -0.566693380214
  Triples (T) contribution             -0.027293686086
  Total correlation energy             -0.593987066300

  RHF-UCCSD-F12b energy              -151.709760207978
  RHF-UCCSD[T]-F12 energy            -151.739061404377
  RHF-UCCSD-T-F12b energy            -151.736594085461
 !RHF-UCCSD(T)-F12 energy            -151.737053894064

 Program statistics:

 Available memory in ccsd:                89522128
 Min. memory needed in ccsd:               1842873
 Max. memory used in ccsd:                 2539610
 Max. memory used in cckext:               2192156 (13 integral passes)
 Max. memory used in cckint:               2072513 ( 1 integral passes)



 **********************************************************************************************************************************
 DATASETS  * FILE   NREC   LENGTH (MB)   RECORD NAMES
              1      18       29.46       500      610      700      900      950      970     1000      129      960     1100   
                                          VAR    BASINP    GEOM    SYMINP    ZMAT    AOBASIS   BASIS     P2S    ABASIS      S 
                                         1400     1410     1200     1210     1080     1600     1650     1700   
                                           T        V       H0       H01     AOSYM     SMH    MOLCAS    OPER   

              2       5        0.82       700     1000      520     2100     7360   
                                         GEOM     BASIS   MCVARS     RHF    F12ABS    

 PROGRAMS   *          TOTAL    UCCSD(T)      HF-SCF         INT
 CPU TIMES  *          11.52        9.62        0.31        1.36
 REAL TIME  *          12.97 SEC
 DISK USED  *          30.37 MB (local),      471.98 MB (total)
 SF USED    *          19.50 MB
 GA USED    *           3.05 MB       (max)       0.00 MB       (current)
 **********************************************************************************************************************************

 UCCSD(T)-F12/cc-pVTZ-F12 energy=   -151.737053894064

    UCCSD(T)-F12          HF-SCF
   -151.73705389   -151.14209172
 **********************************************************************************************************************************
 Molpro calculation terminated
