
 Working directory              : /scratch/molpro/JOB
 Global scratch directory       : /scratch/molpro/JOB
 Wavefunction directory         : /home/user/wfu/
 Main file repository           : /scratch/molpro/JOB

 id        : dana

 Nodes                   nprocs
 n172.hpc.example   11
 Distribution of processes:   nprocs(total)=   12   nprocs(compute)=   11   nprocs(helper)=    1
 GA implementation: MPI file
 GA implementation (serial work in mppx): MPI file

 Using customized tuning parameters: mindgm=1; mindgv=20; mindgc=4; mindgr=1; noblas=0; minvec=7
 default implementation of scratch files=sf  


 Variables initialized (1066), CPU time= 0.01 sec
 ***,CH3[22]
 memory,Total=5250,m;
 
 geometry={angstrom;
 C       0.00000000    0.00000000    0.00000000
 H       0.00000000    1.07942400   -0.00000000
 H      -0.93480900   -0.53971200   -0.00000000
 H       0.93480900   -0.53971200   -0.00000000}
 
 gprint,orbitals;
 
 basis=cc-pvtz-f12
 
 
 
 int;
 
 {hf;
  maxit,999;
  wf,spin=1,charge=0;
 }
 
 uccsd(t)-f12;
 
 
 

 Commands initialized (848), CPU time= 0.01 sec, 732 directives.
 Default parameters read. Elapsed time= 0.12 sec

 Checking input...
 Passed
1


                                         ***  PROGRAM SYSTEM MOLPRO  ***
                                       Copyright, TTI GmbH Stuttgart, 2015
                                  Version 2026.1 linked Wed Jun  3 18:57:24 2026


 **********************************************************************************************************************************
 LABEL *   CH3[22]                                                                                                                                                       
                                                                                         DATE: 21-Jul-26          TIME: 15:51:36  
 **********************************************************************************************************************************

 SHA1:             6d9f1312673b6313bee3f063234a8989bae25437
 **********************************************************************************************************************************

 Memory per process:       358 MW
 Total memory per node:   5250 MW
 Total GA space:          1313 MW

 GA preallocation disabled
 GA check enabled

 Variable memory set to 358.0 MW


 Geometry recognized as XYZ


 SETTING BASIS          =    CC-PVTZ-F12


 Using spherical harmonics

 Library entry C      S cc-pVTZ-F12          selected for orbital group  1
 Library entry C      P cc-pVTZ-F12          selected for orbital group  1
 Library entry C      D cc-pVTZ-F12          selected for orbital group  1
 Library entry C      F cc-pVTZ-F12          selected for orbital group  1
 Library entry H      S cc-pVTZ-F12          selected for orbital group  2
 Library entry H      P cc-pVTZ-F12          selected for orbital group  2
 Library entry H      D cc-pVTZ-F12          selected for orbital group  2


 PROGRAM * SEWARD (Integral evaluation for generally contracted gaussian basis sets)     Author: Roland Lindh, 1990

 Geometry written to block  1 of record 700


 Point group  C2v 



 ATOMIC COORDINATES

 NR  ATOM    CHARGE       X              Y              Z

   1  C       6.00    0.000000000    0.000000000    0.000000000
   2  H       1.00    0.000000000    2.039815732    0.000000000
   3  H       1.00   -1.766532989   -1.019907866    0.000000000
   4  H       1.00    1.766532989   -1.019907866    0.000000000

 Bond lengths in Bohr (Angstrom)

 1-2  2.039815732  1-3  2.039816378  1-4  2.039816378
     ( 1.079424000)     ( 1.079424342)     ( 1.079424342)

 Bond angles

  2-1-3  119.99998953   2-1-4  119.99998953   3-1-4  120.00002094

 NUCLEAR CHARGE:                    9
 NUMBER OF PRIMITIVE AOS:         135
 NUMBER OF SYMMETRY AOS:          123
 NUMBER OF CONTRACTIONS:          107   (   44A1  +   30B1  +   22B2  +   11A2  )
 NUMBER OF INNER CORE ORBITALS:     0   (    0A1  +    0B1  +    0B2  +    0A2  )
 NUMBER OF OUTER CORE ORBITALS:     1   (    1A1  +    0B1  +    0B2  +    0A2  )
 NUMBER OF VALENCE ORBITALS:        7   (    4A1  +    2B1  +    1B2  +    0A2  )


 NUCLEAR REPULSION ENERGY 9.67344566

 Eigenvalues of metric

         1 0.191E-03 0.326E-03 0.573E-03 0.703E-03 0.156E-02 0.207E-02 0.249E-02 0.346E-02
         2 0.326E-03 0.573E-03 0.207E-02 0.346E-02 0.438E-02 0.931E-02 0.144E-01 0.257E-01
         3 0.544E-03 0.104E-01 0.143E-01 0.333E-01 0.707E-01 0.821E-01 0.145E+00 0.160E+00
         4 0.143E-01 0.707E-01 0.145E+00 0.160E+00 0.537E+00 0.633E+00 0.786E+00 0.850E+00


 Contracted 2-electron integrals neglected if value below      1.0D-11
 AO integral compression algorithm  1   Integral accuracy      1.0D-11

     28.836 MB (compressed) written to integral file ( 62.8%)

     Node minimum: 1.835 MB, node maximum: 3.146 MB


 NUMBER OF SORTED TWO-ELECTRON INTEGRALS:     401244.     BUFFER LENGTH:  32768
 NUMBER OF SEGMENTS:   1  SEGMENT LENGTH:     401244      RECORD LENGTH: 524288

 Memory used in sort:       0.96 MW

 SORT1 READ     5814520. AND WROTE      381785. INTEGRALS IN      2 RECORDS. CPU TIME:     0.10 SEC, REAL TIME:     0.10 SEC
 SORT2 READ     4219948. AND WROTE     4415131. INTEGRALS IN    110 RECORDS. CPU TIME:     0.01 SEC, REAL TIME:     0.01 SEC

 Node minimum:      400117.  Node maximum:      403391. integrals

 OPERATOR DM      FOR CENTER  0  COORDINATES:    0.000000    0.000000    0.000000


 **********************************************************************************************************************************
 DATASETS  * FILE   NREC   LENGTH (MB)   RECORD NAMES
              1      18       29.21       500      610      700      900      950      970     1000      129      960     1100   
                                          VAR    BASINP    GEOM    SYMINP    ZMAT    AOBASIS   BASIS     P2S    ABASIS      S 
                                         1400     1410     1200     1210     1080     1600     1650     1700   
                                           T        V       H0       H01     AOSYM     SMH    MOLCAS    OPER   

 PROGRAMS   *          TOTAL         INT
 CPU TIMES  *           0.47        0.33
 REAL TIME  *           0.52 SEC
 DISK USED  *          29.60 MB (local),      346.98 MB (total)
 GA USED    *           0.00 MB       (max)       0.00 MB       (current)
 **********************************************************************************************************************************


 Program * Restricted Hartree-Fock

 Orbital guess generated from atomic densities. Full valence occupancy:    5   2   1   0

 Initial alpha occupancy:   3   1   1   0
 Initial beta  occupancy:   3   1   0   0

 NELEC=    9   SYM=3   MS2= 1   THRE=1.0D-08   THRD=3.2D-06   THRG=3.2D-06  HFMA2=F  DIIS_START=2   DIIS_MAX=10   DIIS_INCORE=F

 Level shifts:    0.00 (CLOSED)    0.00 (OPEN)    0.30 (GAP_MIN)

 ITER           ETOT              DE          GRAD        DDIFF     DIIS  NEXP   TIME(IT)  TIME(TOT)  DIAG
   1      -39.56811645     -39.56811645     0.00D+00     0.10D+00     0     0       0.00      0.00    start
   2      -39.57481806      -0.00670161     0.49D-02     0.60D-02     1     0       0.00      0.01    diag2
   3      -39.57545739      -0.00063934     0.13D-02     0.14D-02     2     0       0.00      0.01    diag2
   4      -39.57548529      -0.00002789     0.27D-03     0.37D-03     3     0       0.00      0.01    diag2
   5      -39.57548765      -0.00000237     0.72D-04     0.12D-03     4     0       0.00      0.01    diag2
   6      -39.57548783      -0.00000018     0.14D-04     0.35D-04     5     0       0.00      0.02    diag2
   7      -39.57548785      -0.00000002     0.44D-05     0.13D-04     6     0       0.00      0.02    diag2
   8      -39.57548785      -0.00000000     0.67D-06     0.21D-05     7     0       0.00      0.02    fixocc
   9      -39.57548785      -0.00000000     0.33D-07     0.17D-06     0     0       0.00      0.02    diag

 Final alpha occupancy:   3   1   1   0
 Final beta  occupancy:   3   1   0   0

 !RHF STATE 1.3 Energy                -39.575487854187
  RHF One-electron energy             -71.572564143106
  RHF Two-electron energy              22.323630628805
  RHF Kinetic energy                   39.528076452490
  RHF Nuclear energy                    9.673445660114
  RHF Virial quotient                  -1.001199436096

 !RHF STATE 1.3 Dipole moment           0.00000000     0.00000007     0.00000000
 Dipole moment /Debye                   0.00000000     0.00000017     0.00000000

 ELECTRON ORBITALS
 =================

  Orbital  Occupation    Energy    Cen Mu Typ  Coefficients
    1.1     2.00000   -11.22503     1  1  s        1.00060
    2.1     2.00000    -0.90136     1  2  s        0.82397    2  1  s        0.40808    3  1  s        0.57711
    3.1     2.00000    -0.57458     1  1  py       0.69440    2  1  s        0.73194    3  1  s       -0.51756
    1.2     2.00000    -0.57458     1  1  px       0.69440    3  1  s       -0.89644
    1.3     1.00000    -0.37420     1  1  pz       0.90303


 HOMO      1.3    -0.374199 =     -10.1825eV
 LUMO      4.1     0.069020 =       1.8781eV
 LUMO-HOMO         0.443220 =      12.0606eV

 Orbitals saved in record  2100.2


 **********************************************************************************************************************************
 DATASETS  * FILE   NREC   LENGTH (MB)   RECORD NAMES
              1      18       29.22       500      610      700      900      950      970     1000      129      960     1100   
                                          VAR    BASINP    GEOM    SYMINP    ZMAT    AOBASIS   BASIS     P2S    ABASIS      S 
                                         1400     1410     1200     1210     1080     1600     1650     1700   
                                           T        V       H0       H01     AOSYM     SMH    MOLCAS    OPER   

              2       4        0.55       700     1000      520     2100   
                                         GEOM     BASIS   MCVARS     RHF  

 PROGRAMS   *          TOTAL      HF-SCF         INT
 CPU TIMES  *           0.54        0.07        0.33
 REAL TIME  *           0.94 SEC
 DISK USED  *          29.84 MB (local),      349.66 MB (total)
 GA USED    *           0.00 MB       (max)       0.00 MB       (current)
 **********************************************************************************************************************************


 PROGRAM * CCSD (Unrestricted open-shell coupled cluster)     Authors: C. Hampel, H.-J. Werner, 1991, M. Deegan, P.J. Knowles, 1992

                           UCCSD-F12 implementation by G. Knizia and H.-J. Werner, 2008

                   Density fitting integral evaluation by F.R. Manby, 2003,2007, G. Knizia, 2010


 Generating basis VTZ-F12-JKFIT
  Atom=C        basis=aug-cc-pVTZ/JKFIT
  Atom=H        basis=aug-cc-pVTZ/JKFIT
 Number of basis functions:     242

 Generating basis CC-PVTZ-F12_OPT
  Atom=C        basis=cc-pVTZ-F12_OPT
  Atom=H        basis=cc-pVTZ-F12_OPT
 Number of basis functions:     198

 Generating basis CC-PVTZ-F12-MP2FIT
  Atom=C        basis=aug-cc-pVTZ/MP2FIT
  Atom=H        basis=aug-cc-pVTZ/MP2FIT
 Number of basis functions:     244


 Convergence thresholds:  THRVAR = 1.00D-08  THRDEN = 1.00D-06

 CCSD(T)     terms to be evaluated (factor= 1.000)


 Number of core orbitals:           1 (   1   0   0   0 )
 Number of closed-shell orbitals:   3 (   2   1   0   0 )
 Number of active  orbitals:        1 (   0   0   1   0 )
 Number of external orbitals:     102 (  41  29  21  11 )

 Memory could be reduced to 3.13 Mwords without degradation in triples

 Number of N-1 electron functions:               7
 Number of N-2 electron functions:              21
 Number of singly external CSFs:               244
 Number of doubly external CSFs:             46424
 Total number of CSFs:                       46668

 Molecular orbitals read from record     2100.2  Type=RHF/CANONICAL (state 1.3)

 Integral transformation finished. Total CPU:       0.04 sec, npass=  1 Memory used:      0.37 MW

 Geminal basis:    OPTFULL  GEM_TYPE=SLATER  BETA=1.0  NGEM=6

 Optimizing Gaussian exponents for each gem_beta

 Geminal optimization for beta= 1.0000
 Weight function:   m=0, omega= 1.4646

 Augmented Hessian optimization of geminal fit. Trust ratio= 0.40000
 Convergence reached after   2 iterations. Final gradient= 8.31D-16, Step= 4.30D-06, Delta= 1.28D-09

 Alpha:                 0.19532     0.81920     2.85917     9.50073    35.69989   197.79328
 Coeff:                 0.27070     0.30552     0.18297     0.10986     0.06810     0.04224


 WFN_F12=FIX,EG    DECOUPLE_EXPL=F   HYBRID=0    NOX=F   SEMIINT_F12=T   CORE_SINGLES=F


 AO(A)-basis ORBITAL           loaded. Number of functions:     107
 RI(R)-basis CC-PVTZ-F12/OPTRI loaded. Number of functions:     198
 DF-basis VTZ-F12/JKFIT        loaded. Number of functions:     242

 Screening thresholds:   THRAO=  1.00D-14  THRMO=  1.00D-14  THRPROD=  1.00D-14
                         THRSW=  1.00D-14  THROV=  1.00D-14  THRAOF12= 1.00D-08

 CPU time for one-electron matrices               0.08 sec

 Construction of ABS:
 Pseudo-inverse stability          3.44E-12
 Smallest eigenvalue of S          3.44E-04  (threshold= 1.00E-08)
 Ratio eigmin/eigmax               5.26E-05  (threshold= 1.00E-09)
 Smallest eigenvalue of S kept     3.44E-04  (threshold= 3.44E-04, 0 functions deleted, 198 kept)

 Construction of CABS:
 Pseudo-inverse stability          8.88E-11
 Smallest eigenvalue of S          1.30E-06  (threshold= 1.00E-08)
 Ratio eigmin/eigmax               1.30E-06  (threshold= 1.00E-09)
 Smallest eigenvalue of S kept     1.30E-06  (threshold= 1.30E-06, 0 functions deleted, 198 kept)

 CPU time for basis constructions                 0.01 sec
 Fock operators(MO) rebuilt from dump record.
 CPU time for Fock operator transformation        0.04 sec

                                      TOTAL          ALPHA          BETA    
  Singles Contributions MO        -0.002633312   -0.001329688   -0.001303624
  Singles Contributions CABS      -0.000467444   -0.000272664   -0.000194780
  Pure DF-RHF relaxation          -0.000461144

 CPU time for RHF CABS relaxation                 0.02 sec
 CPU time for singles (tot)                       0.04 sec

 AO(A)-basis ORBITAL           loaded. Number of functions:     107
 RI(R)-basis CC-PVTZ-F12/OPTRI loaded. Number of functions:     198
 DF-basis CC-PVTZ-F12/MP2FIT   loaded. Number of functions:     244

 Screening thresholds:   THRAO=  1.00D-14  THRMO=  1.00D-14  THRPROD=  1.00D-14
                         THRSW=  1.00D-14  THROV=  1.00D-14  THRAOF12= 1.00D-08

 CPU time for transformed integrals               0.25 sec
 CPU time for F12 matrices                        0.08 sec

 Diagonal F12 ansatz with fixed amplitudes:   TS= 0.5000  TT= 0.2500  TN= 0.3750

 ITER.     SQ.NORM      CORR.ENERGY   TOTAL ENERGY  ENERGY CHANGE      VAR         CPU   MICRO    DIIS
   1      1.05269268    -0.18192605   -39.75787504    -1.8239E-01   5.11E-02      0.00  1  1  1   0  0
   2      1.05208643    -0.18109659   -39.75704558     8.2946E-04   1.99E-05      0.01  0  0  0   1  1
   3      1.05212943    -0.18114714   -39.75709614    -5.0558E-05   5.64E-08      0.01  0  0  0   2  2
   4      1.05212932    -0.18114726   -39.75709626    -1.1315E-07   1.28E-10      0.02  0  0  0   3  3

 - - Continuing with F12/conv. amplitude coupling turned on.

   5      1.05206742    -0.18108070   -39.75702970     6.6444E-05   1.61E-05      0.02  1  1  1   1  1
   6      1.05206704    -0.18108071   -39.75702971    -1.1381E-08   3.77E-10      0.03  1  1  1   2  2

 CPU time for iterative RMP2-F12                  0.03 sec


 DF-RMP2-F12 doubles corrections:
 - - - - - - - - - - - - - - - - 
  Approx.                             TOTAL           A-B            A-A            B-B    
  RMP2-F12/3C(FIX)                -0.014168318   -0.013497538   -0.000500118   -0.000170663
  RMP2-F12/3*C(FIX)               -0.014234864   -0.013567462   -0.000498468   -0.000168934
  RMP2-F12/3*C(DX)                -0.014243247   -0.013575682   -0.000498612   -0.000168954
  RMP2-F12/3*C(FIX,DX)            -0.014449657   -0.013790632   -0.000491282   -0.000167742

 DF-RMP2-F12 doubles energies:
 - - - - - - - - - - - - - - -
  Approx.                             TOTAL           A-B            A-A            B-B    
  RMP2                            -0.164279082   -0.133486412   -0.022590954   -0.008201716
  RMP2-F12/3C(FIX)                -0.178447400   -0.146983950   -0.023091072   -0.008372379
  RMP2-F12/3*C(FIX)               -0.178513946   -0.147053874   -0.023089422   -0.008370650
  RMP2-F12/3*C(DX)                -0.178522329   -0.147062094   -0.023089566   -0.008370670
  RMP2-F12/3*C(FIX,DX)            -0.178728739   -0.147277045   -0.023082236   -0.008369458


  Reference energy                    -39.575487854186
  CABS relaxation correction to RHF    -0.000461143522
  New reference energy                -39.575948997708

  RMP2-F12 singles (MO) energy         -0.002633311856
  RMP2-F12 pair energy                 -0.178447400466
  RMP2-F12 correlation energy          -0.181080712322

 !RMP2-F12/3C(FIX) energy             -39.757029710030

 Starting RMP2 calculation

 ITER.      SQ.NORM     CORR.ENERGY   TOTAL ENERGY   ENERGY CHANGE        DEN1      VAR(S)    VAR(P)  DIIS     TIME
   1      1.05160704    -0.16632113   -39.74180899    -0.16632113    -0.00055790  0.82D-05  0.21D-03  1  1      0.63
   2      1.05211998    -0.16692048   -39.74240833    -0.00059935    -0.00000058  0.17D-07  0.24D-06  2  2      0.63
   3      1.05213066    -0.16692728   -39.74241513    -0.00000680    -0.00000000  0.52D-10  0.61D-09  3  3      0.64
   4      1.05213073    -0.16692727   -39.74241513     0.00000000    -0.00000000  0.21D-12  0.17D-11  4  4      0.64

 Norm of t1 vector:      0.03990297      S-energy:    -0.00263331      T1 diagnostic:  0.00011329
 Norm of t2 vector:      0.22480766      P-energy:    -0.16429396
                                         Alpha-Beta:  -0.13354233
                                         Alpha-Alpha: -0.02255489
                                         Beta-Beta:   -0.00819674

 Spin contamination <S**2-Sz**2-Sz>     0.00019564
  Reference energy                    -39.575487854186
  CABS singles correction              -0.000461143522
  New reference energy                -39.575948997708
  RHF-RMP2 correlation energy          -0.166927274569
 !RHF-RMP2 energy                     -39.742876272277

  F12/3C(FIX) correction               -0.014168318387
  RHF-RMP2-F12 correlation energy      -0.181095592955
 !RHF-RMP2-F12 total energy           -39.757044590663

 Starting UCCSD calculation

 ITER.      SQ.NORM     CORR.ENERGY   TOTAL ENERGY   ENERGY CHANGE        DEN1      VAR(S)    VAR(P)  DIIS     TIME
   1      1.06060970    -0.17630102   -39.75178887    -0.17630102    -0.00535165  0.40D-03  0.15D-02  1  1      0.66
   2      1.06674642    -0.18227524   -39.75776309    -0.00597422    -0.00025569  0.23D-04  0.81D-04  2  2      0.67
   3      1.06830263    -0.18322292   -39.75871078    -0.00094769    -0.00002514  0.22D-05  0.96D-05  3  3      0.69
   4      1.06876171    -0.18340852   -39.75889637    -0.00018559    -0.00000326  0.17D-06  0.15D-05  4  4      0.71
   5      1.06889852    -0.18343573   -39.75892359    -0.00002721    -0.00000038  0.88D-08  0.19D-06  5  5      0.72
   6      1.06892821    -0.18344297   -39.75893083    -0.00000724    -0.00000003  0.55D-08  0.12D-07  6  6      0.74
   7      1.06893000    -0.18344273   -39.75893059     0.00000024    -0.00000000  0.13D-08  0.79D-09  6  1      0.76

 Norm of t1 vector:      0.05429627      S-energy:    -0.00303406      T1 diagnostic:  0.00632863
                                                                       D1 diagnostic:  0.01057848
                                                                       D2 diagnostic:  0.13800252 (internal)
 Norm of t2 vector:      0.25686944      P-energy:    -0.18040867
                                         Alpha-Beta:  -0.14979020
                                         Alpha-Alpha: -0.02285890
                                         Beta-Beta:   -0.00775957

 Spin contamination <S**2-Sz**2-Sz>     0.00007987

 Memory could be reduced to 3.25 Mwords without degradation in triples


 RESULTS
 =======

  Reference energy                    -39.575487854186
  CABS relaxation correction to RHF    -0.000461143522
  New reference energy                -39.575948997708

  F12 corrections for ansatz 3C(FIX) added to UCCSD energy. Coupling mode: 15

  UCCSD-F12a singles energy            -0.003034057869
  UCCSD-F12a pair energy               -0.194557979267
  UCCSD-F12a correlation energy        -0.197592037136
  Triples (T) contribution             -0.005107849898
  Total correlation energy             -0.202699887034

  RHF-UCCSD-F12a energy               -39.773541034844
  RHF-UCCSD[T]-F12 energy             -39.778736060324
  RHF-UCCSD-T-F12a energy             -39.778611500330
 !RHF-UCCSD(T)-F12 energy             -39.778648884742

  F12 corrections for ansatz 3C(FIX) added to UCCSD energy. Coupling mode: 15

  UCCSD-F12b singles energy            -0.003034057869
  UCCSD-F12b pair energy               -0.191535735442
  UCCSD-F12b correlation energy        -0.194569793311
  Triples (T) contribution             -0.005107849898
  Total correlation energy             -0.199677643208

  RHF-UCCSD-F12b energy               -39.770518791019
  RHF-UCCSD[T]-F12 energy             -39.775713816499
  RHF-UCCSD-T-F12b energy             -39.775589256505
 !RHF-UCCSD(T)-F12 energy             -39.775626640916

 Program statistics:

 Available memory in ccsd:               357954374
 Min. memory needed in ccsd:                215507
 Max. memory used in ccsd:                  262080
 Max. memory used in cckext:                271671 ( 8 integral passes)
 Max. memory used in cckint:                371023 ( 1 integral passes)



 **********************************************************************************************************************************
 DATASETS  * FILE   NREC   LENGTH (MB)   RECORD NAMES
              1      18       29.22       500      610      700      900      950      970     1000      129      960     1100   
                                          VAR    BASINP    GEOM    SYMINP    ZMAT    AOBASIS   BASIS     P2S    ABASIS      S 
                                         1400     1410     1200     1210     1080     1600     1650     1700   
                                           T        V       H0       H01     AOSYM     SMH    MOLCAS    OPER   

              2       5        0.57       700     1000      520     2100     7360   
                                         GEOM     BASIS   MCVARS     RHF    F12ABS    

 PROGRAMS   *          TOTAL    UCCSD(T)      HF-SCF         INT
 CPU TIMES  *           1.45        0.90        0.07        0.33
 REAL TIME  *           1.88 SEC
 DISK USED  *          29.87 MB (local),      349.96 MB (total)
 SF USED    *           3.80 MB
 GA USED    *           3.05 MB       (max)       0.00 MB       (current)
 **********************************************************************************************************************************

 UCCSD(T)-F12/cc-pVTZ-F12 energy=    -39.775626640916

    UCCSD(T)-F12          HF-SCF
    -39.77562664    -39.57548785
 **********************************************************************************************************************************
 Molpro calculation terminated
