 Checking input...
 Passed
1


                                         ***  PROGRAM SYSTEM MOLPRO  ***
                                       Copyright, TTI GmbH Stuttgart, 2015
                                    Version 2022.2 linked Thu Sep 29 13:37:28 2022


 **********************************************************************************************************************************
 LABEL *   N2H3                                                                          
  64 bit mpp version                                                                     DATE: 02-Jul-24          TIME: 09:02:43  
 ... [trimmed for fixture] ...
 PROGRAMS   *        TOTAL      MRCI    CASSCF    HF-SCF       INT
 CPU TIMES  *      3479.33   3441.05     32.57      1.23      4.22
 REAL TIME  *      3606.75 SEC
 DISK USED  *        73.56 MB (local),        3.04 GB (total)
 SF USED    *         8.62 GB
 GA USED    *         0.00 MB       (max)       0.00 MB       (current)
 **********************************************************************************************************************************

 MRCI/aug-cc-pVTZ energy=   -111.680724003962

            MRCI          CASSCF          HF-SCF
   -111.68072400   -111.36238446   -111.22777067
 **********************************************************************************************************************************
 Molpro calculation terminated
