
 Working directory              : /scratch/molpro/JOB
 Global scratch directory       : /scratch/molpro/JOB
 Wavefunction directory         : /home/user/wfu/
 Main file repository           : /scratch/molpro/JOB

 id        : dana

 Nodes     nprocs
 n020         1
 GA implementation: MPI file
 GA implementation (serial work in mppx): MPI file

 Using customized tuning parameters: mindgm=1; mindgv=20; mindgc=4; mindgr=1; noblas=0; minvec=7
 default implementation of scratch files=df  


 Variables initialized (1025), CPU time= 0.01 sec
 ***,TS2
 memory,752,m;
 
 geometry={angstrom;
  N         -0.79901600          0.08834600          0.06443200
  N          0.26322500          0.31926300          0.76716500
  H         -0.91741600          0.50021600         -0.85139800
  H         -1.47865800         -0.60939400          0.33864300
  H          1.41815000         -0.45290900          0.16529800
  H          1.00513400         -0.79084900          0.84847900
 }
 
 basis=cc-pvtz
 
 {rhf;
 maxit,1000;
 wf,18,1,0}
 
 {casscf;
 wf,18,1,0;
 }
 
 {mrci;
 wf,18,1,0;
 }
 
 Commands initialized (840), CPU time= 0.01 sec, 684 directives.
 Default parameters read. Elapsed time= 0.16 sec

 Checking input...
 Passed
1


                                         ***  PROGRAM SYSTEM MOLPRO  ***
                                       Copyright, TTI GmbH Stuttgart, 2015
                                    Version 2022.3 linked Wed Nov 30 13:40:34 2022


 **********************************************************************************************************************************
 LABEL *   TS2                                                                           
  64 bit serial version                                                                  DATE: 10-Jan-24          TIME: 11:08:27  
 **********************************************************************************************************************************

 SHA1:             e31ec9a5ea85254ab76f59d122cbdd51c71cf98b
 **********************************************************************************************************************************

 Memory per process:       752 MW
 Total memory per node:    752 MW

 GA preallocation disabled
 GA check disabled

 Variable memory set to 752.0 MW


 Geometry recognized as XYZ

 SETTING BASIS          =    CC-PVTZ


 Recomputing integrals since basis changed


 Using spherical harmonics

 Library entry N      S cc-pVTZ              selected for orbital group  1
 Library entry N      P cc-pVTZ              selected for orbital group  1
 Library entry N      D cc-pVTZ              selected for orbital group  1
 Library entry N      F cc-pVTZ              selected for orbital group  1
 Library entry H      S cc-pVTZ              selected for orbital group  2
 Library entry H      P cc-pVTZ              selected for orbital group  2
 Library entry H      D cc-pVTZ              selected for orbital group  2


 PROGRAM * SEWARD (Integral evaluation for generally contracted gaussian basis sets)     Author: Roland Lindh, 1990

 Geometry written to block  1 of record 700


 Point group  C1  



 ATOMIC COORDINATES

 NR  ATOM    CHARGE       X              Y              Z

   1  N       7.00   -1.509921409    0.166949744    0.121758834
   2  N       7.00    0.497423159    0.603319632    1.449731742
   3  H       1.00   -1.733664982    0.945271243   -1.608909043
   4  H       1.00   -2.794258652   -1.151587762    0.639942524
   5  H       1.00    2.679915104   -0.855873969    0.312367949
   6  H       1.00    1.899427979   -1.494488016    1.603392932

 Bond lengths in Bohr (Angstrom)

 1-2  2.446091360  1-3  1.910773886  1-4  1.912217991  2-6  2.527850115  5-6  1.638210475
     ( 1.294415803)     ( 1.011137995)     ( 1.011902183)     ( 1.337680673)     ( 0.866903650)

 Bond angles

  1-2-6  109.88283315   2-1-3  121.00749156   2-1-4  121.80762387   2-6-5   83.84757261

  3-1-4  116.59400839

 NUCLEAR CHARGE:                   18
 NUMBER OF PRIMITIVE AOS:         162
 NUMBER OF SYMMETRY AOS:          148
 NUMBER OF CONTRACTIONS:          116   (  116A   )
 NUMBER OF INNER CORE ORBITALS:     0   (    0A   )
 NUMBER OF OUTER CORE ORBITALS:     2   (    2A   )
 NUMBER OF VALENCE ORBITALS:       12   (   12A   )


 NUCLEAR REPULSION ENERGY   41.27461846

 Eigenvalues of metric

         1 0.150E-02 0.193E-02 0.210E-02 0.252E-02 0.397E-02 0.485E-02 0.602E-02 0.785E-02


 Contracted 2-electron integrals neglected if value below      1.0D-11
 AO integral compression algorithm  1   Integral accuracy      1.0D-11

     110.625 MB (compressed) written to integral file ( 51.8%)


 NUMBER OF SORTED TWO-ELECTRON INTEGRALS:   23028291.     BUFFER LENGTH:  32768
 NUMBER OF SEGMENTS:   2  SEGMENT LENGTH:   15997996      RECORD LENGTH: 524288

 Memory used in sort:      16.56 MW

 SORT1 READ    26629611. AND WROTE    22723232. INTEGRALS IN     66 RECORDS. CPU TIME:     0.19 SEC, REAL TIME:     0.29 SEC
 SORT2 READ    22723232. AND WROTE    23028291. INTEGRALS IN    422 RECORDS. CPU TIME:     0.33 SEC, REAL TIME:     0.40 SEC

 FILE SIZES:   FILE 1:   141.2 MBYTE,  FILE 4:   276.9 MBYTE,   TOTAL:    418.0 MBYTE

 OPERATOR DM      FOR CENTER  0  COORDINATES:    0.000000    0.000000    0.000000


 **********************************************************************************************************************************
 DATASETS  * FILE   NREC   LENGTH (MB)   RECORD NAMES
              1      19      121.65       500      610      700      900      950      970     1000      129      960     1100   
                                          VAR    BASINP    GEOM    SYMINP    ZMAT    AOBASIS   BASIS     P2S    ABASIS      S 
                                         1400     1410     1200     1210     1080     1600     1650     1300     1700   
                                           T        V       H0       H01     AOSYM     SMH    MOLCAS    ERIS     OPER   

 PROGRAMS   *        TOTAL       INT
 CPU TIMES  *         1.62      1.45
 REAL TIME  *         2.36 SEC
 DISK USED  *       399.02 MB
 **********************************************************************************************************************************


 Program * Restricted Hartree-Fock

 Orbital guess generated from atomic densities. Full valence occupancy:   14

 Initial occupancy:   9

 NELEC=   18   SYM=1   MS2= 0   THRE=1.0D-08   THRD=3.2D-06   THRG=3.2D-06  HFMA2=F  DIIS_START=2   DIIS_MAX=10   DIIS_INCORE=F

 Level shifts:    0.00 (CLOSED)    0.00 (OPEN)    0.30 (GAP_MIN)

 ITER           ETOT              DE          GRAD        DDIFF     DIIS  NEXP   TIME(IT)  TIME(TOT)  DIAG
   1     -111.04330589    -111.04330589     0.00D+00     0.67D-01     0     0       0.15      0.29    start
   2     -111.07369267      -0.03038678     0.51D-02     0.65D-02     1     0       0.11      0.40    diag
   3     -111.07754540      -0.00385272     0.19D-02     0.21D-02     2     0       0.12      0.52    diag
   4     -111.07854156      -0.00099616     0.80D-03     0.77D-03     3     0       0.12      0.64    diag
   5     -111.07875342      -0.00021186     0.27D-03     0.43D-03     4     0       0.12      0.76    diag
   6     -111.07878637      -0.00003295     0.94D-04     0.18D-03     5     0       0.13      0.89    diag
   7     -111.07879104      -0.00000467     0.37D-04     0.74D-04     6     0       0.12      1.01    diag
   8     -111.07879191      -0.00000088     0.16D-04     0.28D-04     7     0       0.13      1.14    fixocc
   9     -111.07879222      -0.00000031     0.71D-05     0.19D-04     8     0       0.12      1.26    diag
  10     -111.07879229      -0.00000007     0.30D-05     0.11D-04     9     0       0.13      1.39    diag/orth
  11     -111.07879230      -0.00000001     0.12D-05     0.42D-05     9     0       0.12      1.51    diag
  12     -111.07879231      -0.00000000     0.57D-06     0.25D-05     9     0       0.12      1.63    diag
  13     -111.07879231      -0.00000000     0.15D-06     0.24D-06     0     0       0.13      1.76    diag

 Final occupancy:   9

 !RHF STATE 1.1 Energy               -111.078792307238
  RHF One-electron energy            -232.281584026763
  RHF Two-electron energy              79.928173256276
  RHF Kinetic energy                  110.983996558298
  RHF Nuclear energy                   41.274618463249
  RHF Virial quotient                  -1.000854138902

 !RHF STATE 1.1 Dipole moment          -0.55795120    -0.55920173    -0.62349013
 Dipole moment /Debye                  -1.41817050    -1.42134904    -1.58475384

 Orbital energies:

           1.1          2.1          3.1          4.1          5.1          6.1          7.1          8.1          9.1         10.1
    -15.602204   -15.600853    -1.305695    -0.958866    -0.722471    -0.699382    -0.542227    -0.402318    -0.378600     0.129056

          11.1
      0.148413


 HOMO      9.1    -0.378600 =     -10.3022eV
 LUMO     10.1     0.129056 =       3.5118eV
 LUMO-HOMO         0.507656 =      13.8140eV

 Orbitals saved in record  2100.2


 **********************************************************************************************************************************
 DATASETS  * FILE   NREC   LENGTH (MB)   RECORD NAMES
              1      19      121.65       500      610      700      900      950      970     1000      129      960     1100   
                                          VAR    BASINP    GEOM    SYMINP    ZMAT    AOBASIS   BASIS     P2S    ABASIS      S 
                                         1400     1410     1200     1210     1080     1600     1650     1300     1700   
                                           T        V       H0       H01     AOSYM     SMH    MOLCAS    ERIS     OPER   

              2       4        0.65       700     1000      520     2100   
                                         GEOM     BASIS   MCVARS     RHF  

 PROGRAMS   *        TOTAL   RHF-SCF       INT
 CPU TIMES  *         3.38      1.76      1.45
 REAL TIME  *         4.33 SEC
 DISK USED  *       399.02 MB
 **********************************************************************************************************************************

 PROGRAM * MULTI (Direct Multiconfiguration SCF)       Authors: P.J. Knowles, H.-J. Werner (1984)
                                                                D.A. Kreplin, P.J. Knowles, H.-J. Werner (2019)


 Number of closed-shell orbitals:   2 (    2)
 Number of active  orbitals:       12 (   12)
 Number of external orbitals:     102 (  102)

 State symmetry 1

 Number of active electrons:  14    Spin symmetry=Singlet   Space symmetry=1
 Number of states:             1
 Number of CSFs:          169884   (627264 determinants, 627264 intermediate states)

 Molecular orbitals read from record     2100.2  Type=RHF/CANONICAL  

 Wavefunction dump at record             2140.2

 Convergence thresholds  0.10E-04 (gradient)  0.10E-05 (energy)
 
 Number of orbital rotations:  1452  ( 24 closed/active, 204 closed/virtual, 0 active/active, 1224 active/virtual )
 Total number of variables:    628716
 
 Second-order MCSCF: L-BFGS accelerated
 
 ITER  MIC  NCI  NEG     ENERGY(VAR)    ENERGY(PROJ) ENERGY CHANGE       GRAD(0)  GRAD(ORB)   GRAD(CI)      STEP      TIME
   1   64   56    0   -111.11194204    -111.22916696   -0.11722492    0.04586123 0.00035082 0.00015370  0.17E+01     26.39
   2   31   44    0   -111.22730336    -111.22865675   -0.00135338    0.03527901 0.00010871 0.00009099  0.17E+00     46.67
   3   29   34    0   -111.22865702    -111.22865705   -0.00000004    0.00014262 0.00000084 0.00000034  0.11E-02     65.96

 CONVERGENCE REACHED!  Final gradient:    0.00000041 ( 0.41E-06)
                       Final energy:   -111.22865705
 
 First order charge density matrix for state 1.1 saved on record 2140.2 (density set 1)
 
 Results for state 1.1
 =====================
 !MCSCF STATE 1.1 Energy                      -111.228657054959
 Nuclear energy                                 41.27461846
 Kinetic energy                                111.31984139
 One electron energy                          -232.21478549
 Two electron energy                            79.71150997
 Virial ratio                                    1.99918088
 
 !MCSCF STATE 1.1 Dipole moment                 -0.77761537    -0.48696228    -0.64723558
 Dipole moment /Debye                           -1.97650113    -1.23773465    -1.64510874
 
 No non-zero expectation values
 
 
 Natural orbital dump at molpro section 2140.2 (Orbital set 2)


 **********************************************************************************************************************************
 DATASETS  * FILE   NREC   LENGTH (MB)   RECORD NAMES
              1      20      138.07       500      610      700      900      950      970     1000      129      960     1100   
                                          VAR    BASINP    GEOM    SYMINP    ZMAT    AOBASIS   BASIS     P2S    ABASIS      S 
                                         1400     1410     1200     1210     1080     1600     1650     1300     1700     1380   
                                           T        V       H0       H01     AOSYM     SMH    MOLCAS    ERIS     OPER     JKOP   

              2       5        1.27       700     1000      520     2100     2140   
                                         GEOM     BASIS   MCVARS     RHF     MCSCF   

 PROGRAMS   *        TOTAL    CASSCF   RHF-SCF       INT
 CPU TIMES  *        69.31     65.93      1.76      1.45
 REAL TIME  *        77.10 SEC
 DISK USED  *       399.02 MB
 **********************************************************************************************************************************


 PROGRAM * CI (Multireference internally contracted CI)     Authors: H.-J. Werner, P.J. Knowles, 1987


 Convergence thresholds:  THRVAR = 1.00D-08  THRDEN = 1.00D-06

 Number of optimized states: 1  Roots:    1
 Number of reference states: 1  Roots:    1

 Reference symmetry:                   1   Singlet 
 Number of electrons:                 18
 Maximum number of shells:             8
 Maximum number of spin couplings:   429

 Reference space:    58278 conf   169884 CSFs
 N elec internal:    58278 conf   169884 CSFs
 N-1 el internal:    69576 conf   339768 CSFs
 N-2 el internal:    73789 conf   608751 CSFs

 Number of electrons in valence space:                     14
 Maximum number of open shell orbitals in reference space: 10
 Maximum number of open shell orbitals in internal spaces: 14


 Number of core orbitals:           2 (   2 )
 Number of active  orbitals:       12 (  12 )
 Number of external orbitals:     102 ( 102 )

 Molecular orbitals read from record     2140.2  Type=MCSCF/NATURAL (state 1.1)

 Integral transformation finished. Total CPU:   0.46 sec, npass=  1  Memory used:   2.05 MW


 Number of p-space configurations:   2

 Reference wavefunction optimized for reference space (refopt=1)

 State     Reference Energy 
     1      -111.22865705

 Number of blocks in overlap matrix:     2   Smallest eigenvalue:  0.36D-02
 Number of N-2 electron functions:     144
 Number of N-1 electron functions:  339768

 Number of internal configurations:               169884
 Number of singly external configurations:      34656336
 Number of doubly external configurations:        749700
 Total number of contracted configurations:     35575920
 Total number of uncontracted configurations: 3193606845

 Diagonal Coupling coefficients finished.               Storage:76906958 words, CPU-Time:    505.34 seconds.
 Energy denominators for pairs finished in 1 passes.    Storage: 5049814 words, CPU-time:      0.04 seconds.

  ITER. STATE  ROOT     SQ.NORM     CORR.ENERGY   TOTAL ENERGY   ENERGY CHANGE       DEN1      VAR(S)    VAR(P)      TIME
    1     1     1     1.00000000     0.00000000  -111.22865705     0.00000000    -0.30192996  0.42D-01  0.34D-01   555.43
    2     1     1     1.07448459    -0.29790969  -111.52656675    -0.29790969    -0.01209785  0.21D-02  0.12D-02  2346.54
    3     1     1     1.07847192    -0.30943941  -111.53809647    -0.01152972    -0.00105059  0.20D-03  0.86D-04  4209.20
    4     1     1     1.08097499    -0.31045344  -111.53911050    -0.00101403    -0.00013783  0.29D-04  0.97D-05  6228.80
    5     1     1     1.08193183    -0.31058782  -111.53924487    -0.00013438    -0.00001935  0.40D-05  0.13D-05  8027.92
    6     1     1     1.08211226    -0.31060693  -111.53926399    -0.00001911    -0.00000327  0.68D-06  0.21D-06 10039.22
    7     1     1     1.08211593    -0.31061027  -111.53926732    -0.00000334    -0.00000059  0.12D-06  0.38D-07 12021.41
    8     1     1     1.08211812    -0.31061087  -111.53926793    -0.00000060    -0.00000011  0.23D-07  0.70D-08 13863.86
    9     1     1     1.08212307    -0.31061099  -111.53926805    -0.00000012    -0.00000002  0.49D-08  0.14D-08 15682.27


 =====================================
 Analysis of CPU times by interactions
 =====================================

       I      S      P

 I   0.4%
 S   0.2%   4.0%
 P   3.9%  73.4%  14.6%

 Initialization:   3.3%
 Other:            0.1%

 Total CPU:    15682.3 seconds
 =====================================



 Reference coefficients greater than 0.0500000
 =============================================
 222222200000           0.9247839
 222222020000          -0.0868425
 222220220000          -0.0521778


 RESULTS FOR STATE 1.1
 =====================

 Coefficient of reference function:   C(0) = 0.96073479 (fixed)   0.96130604 (relaxed)

 Energy contributions of configuration classes

 CLASS          SQ.NORM        ECORR1        ECORR2
 +++++++++++++++++++++++++++++++++++++++++++++++++++
 Internals    0.00118956   -0.00000000   -0.00034157
 Singles      0.04130246   -0.12228245   -0.12471326
 Pairs        0.04091830   -0.18832797   -0.18555616
 Total        1.08341032   -0.31061042   -0.31061099
 +++++++++++++++++++++++++++++++++++++++++++++++++++


 Reference energy                    -111.22865705
 Nuclear energy                        41.27461846
 Kinetic energy                       111.55819836
 One electron energy                 -232.03636478
 Two electron energy                   79.22247827
 Virial quotient                       -0.99983031
 Correlation energy                    -0.31061099
 !MRCI STATE 1.1 Energy              -111.539268046608

 Properties without orbital relaxation:

 !MRCI STATE 1.1 Dipole moment         -0.71296682    -0.50972430    -0.64254221
 Dipole moment /Debye                  -1.81218089    -1.29558994    -1.63317939

 Cluster corrected energies          -111.56517621 (Davidson, fixed reference)
 Cluster corrected energies          -111.56477637 (Davidson, relaxed reference)

 Cluster corrected energies          -111.56285923 (Pople, fixed reference)
 Cluster corrected energies          -111.56247319 (Pople, relaxed reference)



 **********************************************************************************************************************************
 DATASETS  * FILE   NREC   LENGTH (MB)   RECORD NAMES
              1      20      138.07       500      610      700      900      950      970     1000      129      960     1100   
                                          VAR    BASINP    GEOM    SYMINP    ZMAT    AOBASIS   BASIS     P2S    ABASIS      S 
                                         1400     1410     1200     1210     1080     1600     1650     1300     1700     1380   
                                           T        V       H0       H01     AOSYM     SMH    MOLCAS    ERIS     OPER     JKOP   

              2       5        1.27       700     1000      520     2100     2140   
                                         GEOM     BASIS   MCVARS     RHF     MCSCF   

 PROGRAMS   *        TOTAL      MRCI    CASSCF   RHF-SCF       INT
 CPU TIMES  *     15823.97  15754.66     65.93      1.76      1.45
 REAL TIME  *     15916.29 SEC
 DISK USED  *         5.45 GB
 **********************************************************************************************************************************

 MRCI/cc-pVTZ energy=   -111.539268046608

            MRCI          CASSCF         RHF-SCF
   -111.53926805   -111.22865705   -111.07879231
 **********************************************************************************************************************************
 Molpro calculation terminated
