
 Working directory              : /scratch/molpro/JOB
 Global scratch directory       : /scratch/molpro/JOB
 Wavefunction directory         : /home/user/wfu/
 Main file repository           : /scratch/molpro/JOB

 id        : dana

 Nodes                   nprocs
 n171.hpc.example   11
 Distribution of processes:   nprocs(total)=   12   nprocs(compute)=   11   nprocs(helper)=    1
 GA implementation: MPI file
 GA implementation (serial work in mppx): MPI file

 Using customized tuning parameters: mindgm=1; mindgv=20; mindgc=4; mindgr=1; noblas=0; minvec=7
 default implementation of scratch files=sf  


 Variables initialized (1066), CPU time= 0.02 sec
 ***,THF
 memory,Total=5250,m;
 
 geometry={angstrom;
 O      -0.00000000   -0.00000000    1.24069300
 C      -0.30737200   -0.69882700   -0.98968400
 C       0.30737200    0.69882700   -0.98968400
 C       0.00000000    1.16508100    0.42864700
 C      -0.00000000   -1.16508100    0.42864700
 H      -1.38663700   -0.63805500   -1.14574800
 H       0.11112800   -1.35844400   -1.74894600
 H       1.38663700    0.63805500   -1.14574800
 H      -0.11112800    1.35844400   -1.74894600
 H      -0.98566700    1.64344000    0.47923200
 H       0.74040000    1.86617500    0.81891300
 H       0.98566700   -1.64344000    0.47923200
 H      -0.74040000   -1.86617500    0.81891300}
 
 gprint,orbitals;
 
 basis=cc-pvtz-f12
 
 
 
 int;
 
 {hf;
  maxit,999;
  wf,spin=0,charge=0;
 }
 
 ccsd(t)-f12;
 
 
 

 Commands initialized (848), CPU time= 0.02 sec, 732 directives.
 Default parameters read. Elapsed time= 0.24 sec

 Checking input...
 Passed
1


                                         ***  PROGRAM SYSTEM MOLPRO  ***
                                       Copyright, TTI GmbH Stuttgart, 2015
                                  Version 2026.1 linked Wed Jun  3 18:57:24 2026


 **********************************************************************************************************************************
 LABEL *   THF                                                                                                                                                           
                                                                                         DATE: 21-Jul-26          TIME: 15:47:43  
 **********************************************************************************************************************************

 SHA1:             6d9f1312673b6313bee3f063234a8989bae25437
 **********************************************************************************************************************************

 Memory per process:       358 MW
 Total memory per node:   5250 MW
 Total GA space:          1313 MW

 GA preallocation disabled
 GA check enabled

 Variable memory set to 358.0 MW


 Geometry recognized as XYZ


 SETTING BASIS          =    CC-PVTZ-F12


 Using spherical harmonics

 Library entry O      S cc-pVTZ-F12          selected for orbital group  1
 Library entry O      P cc-pVTZ-F12          selected for orbital group  1
 Library entry O      D cc-pVTZ-F12          selected for orbital group  1
 Library entry O      F cc-pVTZ-F12          selected for orbital group  1
 Library entry C      S cc-pVTZ-F12          selected for orbital group  2
 Library entry C      P cc-pVTZ-F12          selected for orbital group  2
 Library entry C      D cc-pVTZ-F12          selected for orbital group  2
 Library entry C      F cc-pVTZ-F12          selected for orbital group  2
 Library entry H      S cc-pVTZ-F12          selected for orbital group  3
 Library entry H      P cc-pVTZ-F12          selected for orbital group  3
 Library entry H      D cc-pVTZ-F12          selected for orbital group  3


 PROGRAM * SEWARD (Integral evaluation for generally contracted gaussian basis sets)     Author: Roland Lindh, 1990

 Geometry written to block  1 of record 700


 Point group  C2  



 ATOMIC COORDINATES

 NR  ATOM    CHARGE       X              Y              Z

   1  O       8.00    0.000000000   -0.000000000    2.344569975
   2  C       6.00   -0.580848898   -1.320591638   -1.870231710
   3  C       6.00    0.580848898    1.320591638   -1.870231710
   4  C       6.00    0.000000000    2.201684003    0.810025434
   5  C       6.00    0.000000000   -2.201684003    0.810025434
   6  H       1.00   -2.620364164   -1.205749202   -2.165149928
   7  H       1.00    2.620364164    1.205749202   -2.165149928
   8  H       1.00    0.210001485   -2.567087116   -3.305028947
   9  H       1.00   -0.210001485    2.567087116   -3.305028947
  10  H       1.00   -1.862640680    3.105651502    0.905617230
  11  H       1.00    1.862640680   -3.105651502    0.905617230
  12  H       1.00    1.399153223    3.526559651    1.547521290
  13  H       1.00   -1.399153223   -3.526559651    1.547521290

 Bond lengths in Bohr (Angstrom)

 1-4  2.683698827  1-5  2.683698827  2-3  2.885375344  2-5  2.880535984  2-6  2.063925401
     ( 1.420152260)     ( 1.420152260)     ( 1.526874877)     ( 1.524313998)     ( 1.092182287)

  2- 8  2.058601082   3- 4  2.880535984   3- 7  2.063925401   3- 9  2.058601082   4-10  2.072613166
       ( 1.089364779)       ( 1.524313998)       ( 1.092182287)       ( 1.089364779)       ( 1.096779654)

  4-12  2.063207542   5-11  2.072613166   5-13  2.063207542
       ( 1.091802412)       ( 1.096779654)       ( 1.091802412)

 Bond angles

  1- 4- 3  106.32622215   1- 4-10  109.35622610   1- 4-12  108.80921734   1- 5- 2  106.32622215

  1- 5-11  109.35622610   1- 5-13  108.80921734   2- 3- 4  101.46710278   2- 3- 7  110.29907125

  2- 3- 9  113.55249174   2- 5-11  110.94923445   2- 5-13  113.09584890   3- 2- 5  101.46710278

  3- 2- 6  110.29907125   3- 2- 8  113.55249174   3- 4-10  110.94923445   3- 4-12  113.09584890

  4-1-5  110.24802939   4-3-7  110.44071401   4-3-9  112.69590414   5-2-6  110.44071401

  5- 2- 8  112.69590414   6- 2- 8  108.28385577   7- 3- 9  108.28385577  10- 4-12  108.23329398

 11- 5-13  108.23329398

 NUCLEAR CHARGE:                   40
 NUMBER OF PRIMITIVE AOS:         528
 NUMBER OF SYMMETRY AOS:          475
 NUMBER OF CONTRACTIONS:          409   (  205A   +  204B   )
 NUMBER OF INNER CORE ORBITALS:     0   (    0A   +    0B   )
 NUMBER OF OUTER CORE ORBITALS:     5   (    3A   +    2B   )
 NUMBER OF VALENCE ORBITALS:       28   (   14A   +   14B   )


 NUCLEAR REPULSION ENERGY 191.46948007


 Eigenvalues of metric

         1 0.382E-04 0.936E-04 0.133E-03 0.138E-03 0.151E-03 0.172E-03 0.199E-03 0.355E-03
         2 0.140E-04 0.530E-04 0.821E-04 0.128E-03 0.150E-03 0.182E-03 0.204E-03 0.210E-03


 Contracted 2-electron integrals neglected if value below      1.0D-12
 AO integral compression algorithm  1   Integral accuracy      1.0D-12

     9158.263 MB (compressed) written to integral file ( 55.7%)

     Node minimum: 695.468 MB, node maximum: 926.155 MB


 NUMBER OF SORTED TWO-ELECTRON INTEGRALS:  160485590.     BUFFER LENGTH:  32768
 NUMBER OF SEGMENTS:   6  SEGMENT LENGTH:   31996470      RECORD LENGTH: 524288

 Memory used in sort:      32.55 MW

 SORT1 READ  2053941815. AND WROTE   157101920. INTEGRALS IN    453 RECORDS. CPU TIME:    55.69 SEC, REAL TIME:    56.04 SEC
 SORT2 READ  1724485951. AND WROTE  1766100625. INTEGRALS IN  34122 RECORDS. CPU TIME:     6.75 SEC, REAL TIME:     6.79 SEC

 Node minimum:   160485590.  Node maximum:   160571861. integrals

 OPERATOR DM      FOR CENTER  0  COORDINATES:    0.000000    0.000000    0.000000


 **********************************************************************************************************************************
 DATASETS  * FILE   NREC   LENGTH (MB)   RECORD NAMES
              1      18       32.23       500      610      700      900      950      970     1000      129      960     1100   
                                          VAR    BASINP    GEOM    SYMINP    ZMAT    AOBASIS   BASIS     P2S    ABASIS      S 
                                         1400     1410     1200     1210     1080     1600     1650     1700   
                                           T        V       H0       H01     AOSYM     SMH    MOLCAS    OPER   

 PROGRAMS   *          TOTAL         INT
 CPU TIMES  *          74.13       73.81
 REAL TIME  *          74.66 SEC
 DISK USED  *          32.87 MB (local),        8.04 GB (total)
 GA USED    *           0.00 MB       (max)       0.00 MB       (current)
 **********************************************************************************************************************************


 Program * Restricted Hartree-Fock

 Orbital guess generated from atomic densities. Full valence occupancy:   17  16

 Initial occupancy:  11   9

 NELEC=   40   SYM=1   MS2= 0   THRE=1.0D-08   THRD=3.2D-06   THRG=3.2D-06  HFMA2=F  DIIS_START=2   DIIS_MAX=10   DIIS_INCORE=F

 Level shifts:    0.00 (CLOSED)    0.00 (OPEN)    0.30 (GAP_MIN)

 ITER           ETOT              DE          GRAD        DDIFF     DIIS  NEXP   TIME(IT)  TIME(TOT)  DIAG
   1     -231.01227797    -231.01227797     0.00D+00     0.44D-01     0     0       1.64      3.19    start
   2     -231.06619387      -0.05391590     0.36D-02     0.35D-02     1     0       1.55      4.74    diag
   3     -231.07350537      -0.00731150     0.15D-02     0.11D-02     2     0       1.75      6.49    diag
   4     -231.07486187      -0.00135651     0.58D-03     0.46D-03     3     0       1.90      8.39    diag
   5     -231.07492334      -0.00006146     0.10D-03     0.11D-03     4     0       1.85     10.24    diag
   6     -231.07492893      -0.00000560     0.32D-04     0.36D-04     5     0       1.54     11.79    diag
   7     -231.07492933      -0.00000040     0.75D-05     0.11D-04     6     0       1.57     13.35    diag
   8     -231.07492935      -0.00000001     0.14D-05     0.22D-05     7     0       1.74     15.09    fixocc
   9     -231.07492935      -0.00000000     0.49D-06     0.59D-06     8     0       1.62     16.71    diag
  10     -231.07492935      -0.00000000     0.10D-06     0.12D-06     0     0       1.83     18.54    diag/orth

 Final occupancy:  11   9

 !RHF STATE 1.1 Energy               -231.074929347345
  RHF One-electron energy            -693.062429300470
  RHF Two-electron energy             270.518019885132
  RHF Kinetic energy                  230.902132664151
  RHF Nuclear energy                  191.469480067994
  RHF Virial quotient                  -1.000748354644

 !RHF STATE 1.1 Dipole moment           0.00000000     0.00000000    -0.75549018
 Dipole moment /Debye                   0.00000000     0.00000000    -1.92026451

 ELECTRON ORBITALS
 =================

  Orbital  Occupation    Energy    Cen Mu Typ  Coefficients
    1.1     2.00000   -20.54139     1  1  s        1.00061
    2.1     2.00000   -11.26672     4  1  s        1.00096
    3.1     2.00000   -11.22351     2  1  s        1.00073
    4.1     2.00000    -1.37067     1  2  s        0.79658    4  2  s        0.38652
    5.1     2.00000    -1.06097     1  2  s       -0.29892    2  2  s        0.77152    4  2  s        0.25719
                                    6  1  s        0.28378    8  1  s        0.27819
    6.1     2.00000    -0.80817     1  2  s       -0.28722    2  2  s       -0.29413    2  1  pz       0.25582
                                    4  2  s        0.63075    4  1  py       0.26476   10  1  s        0.42522
                                   12  1  s        0.43907
    7.1     2.00000    -0.67459     1  1  pz       0.41357    2  1  pz      -0.40764    4  1  py       0.42185
                                    8  1  s        0.39828   12  1  s        0.34040
    8.1     2.00000    -0.58894     2  1  px      -0.35745    4  1  px       0.60842    6  1  s        0.34584
                                   10  1  s       -0.56930   12  1  s        0.42716
    9.1     2.00000    -0.50479     1  1  pz       0.48446    2  1  py       0.67549    8  1  s       -0.54912
   10.1     2.00000    -0.47568     2  1  px      -0.62012    4  1  px      -0.35959    6  1  s        0.71900
                                    8  1  s       -0.28136   10  1  s        0.38041   12  1  s       -0.31130
   11.1     2.00000    -0.46387     1  1  pz       0.51284    2  1  pz       0.42085    2  1  py      -0.45934
                                    4  1  pz      -0.54057   12  1  s       -0.31073
    1.2     2.00000   -11.26675     4  1  s        1.00101
    2.2     2.00000   -11.22288     2  1  s        1.00083
    3.2     2.00000    -0.99216     1  1  py       0.25734    2  2  s       -0.38921    4  2  s        0.75003
                                   10  1  s        0.30806   12  1  s        0.32676
    4.2     2.00000    -0.80981     1  1  py       0.28031    2  2  s        0.61671    4  2  s        0.27690
                                    4  1  pz       0.29820    6  1  s        0.45122    8  1  s        0.41136
    5.2     2.00000    -0.68558     1  1  px       0.34725    2  1  px       0.35706    4  1  px       0.44254
                                    6  1  s       -0.30389    8  1  s        0.30727   10  1  s       -0.38052
                                   12  1  s        0.29433
    6.2     2.00000    -0.59433     1  1  px      -0.37935    1  1  py       0.40561    2  1  px       0.32569
                                    4  1  px      -0.28888    4  1  py      -0.33749    6  1  s       -0.43252
                                   12  1  s       -0.39153
    7.2     2.00000    -0.56289     1  1  px       0.25058    1  1  py       0.41742    2  1  px      -0.37755
                                    4  1  py      -0.42523    6  1  s        0.34208    8  1  s       -0.44855
                                   10  1  s       -0.38379
    8.2     2.00000    -0.49279     2  1  pz       0.60392    4  1  py       0.40775    4  1  pz       0.50874
                                    8  1  s       -0.47782   12  1  s        0.42181
    9.2     2.00000    -0.40671     1  1  px       0.73791    4  1  px      -0.41462   10  1  s        0.54674
                                   12  1  s       -0.39097


 HOMO      9.2    -0.406708 =     -11.0671eV
 LUMO     12.1     0.048242 =       1.3127eV
 LUMO-HOMO         0.454951 =      12.3798eV

 Orbitals saved in record  2100.2


 **********************************************************************************************************************************
 DATASETS  * FILE   NREC   LENGTH (MB)   RECORD NAMES
              1      18       32.23       500      610      700      900      950      970     1000      129      960     1100   
                                          VAR    BASINP    GEOM    SYMINP    ZMAT    AOBASIS   BASIS     P2S    ABASIS      S 
                                         1400     1410     1200     1210     1080     1600     1650     1700   
                                           T        V       H0       H01     AOSYM     SMH    MOLCAS    OPER   

              2       4        1.93       700     1000      520     2100   
                                         GEOM     BASIS   MCVARS     RHF  

 PROGRAMS   *          TOTAL      HF-SCF         INT
 CPU TIMES  *          92.80       18.62       73.81
 REAL TIME  *          93.47 SEC
 DISK USED  *          34.29 MB (local),        8.05 GB (total)
 GA USED    *           0.00 MB       (max)       0.00 MB       (current)
 **********************************************************************************************************************************


 PROGRAM * CCSD (Closed-shell coupled cluster)     Authors: C. Hampel, H.-J. Werner, 1991, M. Deegan, P.J. Knowles, 1992

                                  CCSD-F12 implementation by  H.-J. Werner, 2007

                   Density fitting integral evaluation by F.R. Manby, 2003,2007, G. Knizia, 2010


 Generating basis VTZ-F12-JKFIT
  Atom=O        basis=aug-cc-pVTZ/JKFIT
  Atom=C        basis=aug-cc-pVTZ/JKFIT
  Atom=H        basis=aug-cc-pVTZ/JKFIT
 Number of basis functions:     888

 Generating basis CC-PVTZ-F12_OPT
  Atom=O        basis=cc-pVTZ-F12_OPT
  Atom=C        basis=cc-pVTZ-F12_OPT
  Atom=H        basis=cc-pVTZ-F12_OPT
 Number of basis functions:     703

 Generating basis CC-PVTZ-F12-MP2FIT
  Atom=O        basis=aug-cc-pVTZ/MP2FIT
  Atom=C        basis=aug-cc-pVTZ/MP2FIT
  Atom=H        basis=aug-cc-pVTZ/MP2FIT
 Number of basis functions:     898


 Convergence thresholds:  THRVAR = 1.00D-08  THRDEN = 1.00D-06

 CCSD(T)     terms to be evaluated (factor= 1.000)


 Number of core orbitals:           5 (   3   2 )
 Number of closed-shell orbitals:  15 (   8   7 )
 Number of external orbitals:     389 ( 194 195 )

 Molecular orbitals read from record     2100.2  Type=RHF/CANONICAL (state 1.1)

 MP2-F12 correlation treatment (H.-J. Werner, 2006)
 ==================================================

 Using MP2-F12 with ansatz 3C(FIX)

 Using projected zeroth-order Hamiltonian (+Z)

 FOCKRIB=T FOCKRIC=T FOCKRIP=T CABSP=T CABSA=T CABSK=T CABSF=T GBC=F EBC=F DMAT=T NOFIK=T NOPAO=1 SOLVE=-1  USEPAO=0
 EXCH_A= T EXCH_B= F EXCH_C= F EXCH_P= F

 Geminal basis:    OPTFULL  GEM_TYPE=SLATER  BETA=1.0  NGEM=6

 Optimizing Gaussian exponents for each gem_beta

 Geminal optimization for beta= 1.0000
 Weight function:   m=0, omega= 1.4646

 Augmented Hessian optimization of geminal fit. Trust ratio= 0.40000
 Convergence reached after   2 iterations. Final gradient= 8.31D-16, Step= 4.30D-06, Delta= 1.28D-09

 Alpha:                 0.19532     0.81920     2.85917     9.50073    35.69989   197.79328
 Coeff:                 0.27070     0.30552     0.18297     0.10986     0.06810     0.04224


 Symmetry turned off. Reference energy:       -231.074929347345

 All pairs explicitly correlated. Number of r12-pairs:          120

 Excluding core orbitals from MO domains

 AO(A)-basis ORBITAL           loaded. Number of functions:     409
 RI(R)-basis CC-PVTZ-F12/OPTRI loaded. Number of functions:     703
 DF-basis VTZ-F12/JKFIT        loaded. Number of functions:     888

 Screening thresholds:   THRAO=  1.00D-14  THRMO=  1.00D-14  THRPROD=  1.00D-14
                         THRSW=  1.00D-14  THROV=  1.00D-14  THRAOF12= 1.00D-08

 CPU time for Fock operators                      2.80 sec

 Construction of ABS:
 Smallest eigenvalue of S          5.72E-05  (threshold= 1.00E-08)
 Ratio eigmin/eigmax               5.28E-06  (threshold= 1.00E-09)
 Smallest eigenvalue of S kept     5.72E-05  (threshold= 5.72E-05, 0 functions deleted, 703 kept)

 Construction of CABS:
 Smallest eigenvalue of S          3.91E-07  (threshold= 1.00E-08)
 Ratio eigmin/eigmax               3.91E-07  (threshold= 1.00E-09)
 Smallest eigenvalue of S kept     3.91E-07  (threshold= 3.91E-07, 0 functions deleted, 703 kept)

 CPU time for CABS transformation                 0.39 sec
 CPU time for CABS singles                        0.83 sec

 CABS-singles contribution of  -0.00222338 patched into reference energy.
 New reference energy        -231.07715273

 AO(A)-basis ORBITAL           loaded. Number of functions:     409
 RI(R)-basis CC-PVTZ-F12/OPTRI loaded. Number of functions:     703
 DF-basis CC-PVTZ-F12/MP2FIT   loaded. Number of functions:     898

 Screening thresholds:   THRAO=  1.00D-14  THRMO=  1.00D-14  THRPROD=  1.00D-14
                         THRSW=  1.00D-14  THROV=  1.00D-14  THRAOF12= 1.00D-08

 CPU time for 3-index integral evaluation         6.49 sec
 CPU time for first  half transformation          0.93 sec (  6710.2 MFLOP/sec)
 CPU time for second half transformation          0.14 sec (  1051.7 MFLOP/sec)
 CPU time for sorting                             0.37 sec
 CPU time for fitting                             0.33 sec (  7845.3 MFLOP/sec)
 CPU time for tilde quantities                    0.41 sec (  6175.2 MFLOP/sec)
 CPU time for assembly                            4.25 sec ( 12602.6 MFLOP/sec)
 CPU time for tranop_f12                          5.44 sec ( 13552.4 MFLOP/sec)
 CPU time for f12 integrals (total)              30.17 sec, Elapsed time:     31.37 sec
 F12-matrices built in 11 passes.
 F12-matrices built in 11 passes.
 F12-matrices built in 11 passes.
 F12-matrices built in 11 passes.
 FC-matrix built in 11 passes.
 CPU time for f12 matrices (total)                4.40 sec, Elapsed time:      4.43 sec

 Diagonal F12 approximation with fixed coefficients:  TSING= 0.500,  TTRIP= 0.250 (scaled by -1/beta)

 DF-MP2-F12 energy corrections:
 ==============================
 Approx.                                    Singlet             Triplet             Total
 DF-MP2-F12/3*C(DX,FIX)                -0.074294578777     -0.007841230012     -0.082135808789
 DF-MP2-F12/3*C(FIX)                   -0.071069218012     -0.007589418979     -0.078658636991
 DF-MP2-F12/3C(FIX)                    -0.071272747271     -0.007869310396     -0.079142057667

 DF-MP2-F12 correlation energies:
 ================================
 Approx.                                    Singlet             Triplet             Ecorr            Total Energy
 DF-MP2                                -0.616292870140     -0.332862976286     -0.949155846426   -232.026308578486
 DF-MP2-F12/3*C(DX,FIX)                -0.690587448917     -0.340704206298     -1.031291655215   -232.108444387275
 DF-MP2-F12/3*C(FIX)                   -0.687362088151     -0.340452395265     -1.027814483416   -232.104967215476
 DF-MP2-F12/3C(FIX)                    -0.687565617411     -0.340732286682     -1.028297904093   -232.105450636153

 SCS-DF-MP2 energies (F_SING= 1.20000  F_TRIP= 0.62222  F_PARALLEL= 0.33333):
 ============================================================================
 SCS-DF-MP2                            -0.946666184968   -232.023818917028
 SCS-DF-MP2-F12/3*C(DX,FIX)            -1.040698667063   -232.117851399123
 SCS-DF-MP2-F12/3*C(FIX)               -1.036671551724   -232.113824283784
 SCS-DF-MP2-F12/3C(FIX)                -1.037089941495   -232.114242673556

 Symmetry restored.
 Symmetry transformation completed.

 Number of N-1 electron functions:              15
 Number of N-2 electron functions:             120
 Number of singly external CSFs:              2917
 Number of doubly external CSFs:           8514724
 Total number of CSFs:                     8517642

 Pair and operator lists are different

 Length of J-op  integral file:               2.31 GB
 Length of K-op  integral file:               2.52 GB
 Length of 3-ext integral record:             0.00 MB

 For full I/O caching in triples, increase memory by 177.12 Mwords to 535.13 Mwords.

 Integral transformation finished. Total CPU:      65.24 sec, npass=  1  Memory used:   213.45 MW

 Reference energy:                   -231.07715273

 Adding F12 terms to K(Cij), methodcc=6,  factor= 1.0

 ITER.      SQ.NORM     CORR.ENERGY   TOTAL ENERGY   ENERGY CHANGE        DEN1      VAR(S)    VAR(P)  DIIS     TIME  TIME/IT
   1      1.27567877    -0.96989316  -232.04704589    -0.02060355     0.00350573  0.37D-02  0.43D-02  1  1    123.28     14.91
   2      1.29307422    -0.97120107  -232.04835381    -0.00130791    -0.02031444  0.57D-04  0.54D-03  2  2    139.22     15.48
   3      1.29927475    -0.97146478  -232.04861751    -0.00026371    -0.00401359  0.41D-04  0.31D-04  3  3    155.24     15.69
   4      1.30131638    -0.97147355  -232.04862628    -0.00000877    -0.00123601  0.21D-05  0.34D-05  4  4    171.27     15.80
   5      1.30172991    -0.97148785  -232.04864058    -0.00001430    -0.00011543  0.72D-06  0.25D-06  5  5    188.41     16.10
   6      1.30183782    -0.97148151  -232.04863425     0.00000634    -0.00000874  0.82D-07  0.30D-07  6  6    205.66     16.31
   7      1.30186421    -0.97147894  -232.04863167     0.00000257    -0.00000549  0.11D-07  0.49D-08  6  1    223.45     16.54
   8      1.30186981    -0.97147871  -232.04863144     0.00000024    -0.00000038  0.20D-08  0.73D-09  6  3    245.60     17.25
   9      1.30187348    -0.97147849  -232.04863123     0.00000021    -0.00000104  0.17D-09  0.11D-09  6  2    265.86     17.60

 Norm of t1 vector:      0.07875170      S-energy:     0.00000002      T1 diagnostic:  0.01016680
                                                                       D1 diagnostic:  0.02534003
                                                                       D2 diagnostic:  0.14382853 (internal)

 Adding energy correction from Wij-K(Fij), methodcc=6  factor= 1.0

  CCSD correlation energy              -0.971478493111
  MP2-F12 correction (uncoupled)       -0.075938929520
  C*T doubles correction               -0.002296694103
  f12b correction                       0.014787377960


 Total CPU time for triples:    331.28 sec


 RESULTS
 =======

  Reference energy                   -231.074929347345
  F12 singles correction               -0.002223384716

 F12 singles corrections added to reference energy

  New reference energy               -231.077152732060

  F12a singlet correction              -0.070653371457
  F12a triplet correction              -0.007582252165
  F12a total correction                -0.078235623623

 F12a corrections for ansatz F12/3C(FIX) added to CCSD energy

  CCSD-F12a singlet pair energy        -0.738088391950
  CCSD-F12a triplet pair energy        -0.311625744808
  CCSD-F12a correlation energy         -1.049714116733

  Triples (T) contribution             -0.040731035540
  Total correlation energy             -1.090445152273

  CCSD-F12a total energy             -232.126866848794
  CCSD[T]-F12a energy                -232.168813744289
  CCSD-T-F12a energy                 -232.167084771141
 !CCSD(T)-F12a total energy          -232.167597884334

 F12b corrections for ansatz F12/3C(FIX) added to CCSD(T)-F12a energy

  CCSD-F12b singlet pair energy        -0.724239913363
  CCSD-F12b triplet pair energy        -0.310686845435
  CCSD-F12b correlation energy         -1.034926738773

  Triples (T) contribution             -0.040731035540
  Total correlation energy             -1.075657774313

  CCSD-F12b total energy             -232.112079470833
  CCSD[T]-F12b energy                -232.154026366328
  CCSD-T-F12b energy                 -232.152297393180
 !CCSD(T)-F12b total energy          -232.152810506373

 Timing summary (sec):

 STEP                 CPU(USER)    SYS     CPU(TOT)    WALL
 Transformation         65.34      0.43     65.77     65.77
 CCSD iterations       158.36      1.14    159.50    159.50
 Triples               331.28      2.31    333.60    333.60
 MP2-F12                43.00      1.27     44.26     44.26
 F12b energy            14.01      0.11     14.12     14.12

 Program statistics:

 Available memory in ccsd:               357953034
 Min. memory needed in ccsd:              20759742
 Max. memory used in ccsd:                28587315
 Max. memory used in cckext:              29384748 (10 integral passes)



 **********************************************************************************************************************************
 DATASETS  * FILE   NREC   LENGTH (MB)   RECORD NAMES
              1      18       32.23       500      610      700      900      950      970     1000      129      960     1100   
                                          VAR    BASINP    GEOM    SYMINP    ZMAT    AOBASIS   BASIS     P2S    ABASIS      S 
                                         1400     1410     1200     1210     1080     1600     1650     1700   
                                           T        V       H0       H01     AOSYM     SMH    MOLCAS    OPER   

              2       6        2.88       700     1000      520     2100     7360     7350   
                                         GEOM     BASIS   MCVARS     RHF    F12ABS    EF12   

 PROGRAMS   *          TOTAL     CCSD(T)      HF-SCF         INT
 CPU TIMES  *         706.59      613.77       18.62       73.81
 REAL TIME  *         712.55 SEC
 DISK USED  *          35.25 MB (local),        8.06 GB (total)
 SF USED    *           1.76 GB
 GA USED    *           3.05 MB       (max)       0.00 MB       (current)
 **********************************************************************************************************************************

 CCSD(T)-F12/cc-pVTZ-F12 energy=   -232.152810506373

     CCSD(T)-F12          HF-SCF
   -232.15281051   -231.07492935
 **********************************************************************************************************************************
 Molpro calculation terminated
