
 Working directory              : /scratch/molpro/JOB
 Global scratch directory       : /scratch/molpro/JOB
 Wavefunction directory         : /home/user/wfu/
 Main file repository           : /scratch/molpro/JOB

 id        : dana

 Nodes                   nprocs
 n172.hpc.example   11
 Distribution of processes:   nprocs(total)=   12   nprocs(compute)=   11   nprocs(helper)=    1
 GA implementation: MPI file
 GA implementation (serial work in mppx): MPI file

 Using customized tuning parameters: mindgm=1; mindgv=20; mindgc=4; mindgr=1; noblas=0; minvec=7
 default implementation of scratch files=sf  


 Variables initialized (1066), CPU time= 0.01 sec
 ***,CH4[23]
 memory,Total=5250,m;
 
 geometry={angstrom;
 C       0.00000000    0.00000000    0.00000000
 H       0.62869900    0.62869900    0.62869900
 H      -0.62869900   -0.62869900    0.62869900
 H      -0.62869900    0.62869900   -0.62869900
 H       0.62869900   -0.62869900   -0.62869900}
 
 gprint,orbitals;
 
 basis=cc-pvtz-f12
 
 
 
 int;
 
 {hf;
  maxit,999;
  wf,spin=0,charge=0;
 }
 
 ccsd(t)-f12;
 
 
 

 Commands initialized (848), CPU time= 0.01 sec, 732 directives.
 Default parameters read. Elapsed time= 0.13 sec

 Checking input...
 Passed
1


                                         ***  PROGRAM SYSTEM MOLPRO  ***
                                       Copyright, TTI GmbH Stuttgart, 2015
                                  Version 2026.1 linked Wed Jun  3 18:57:24 2026


 **********************************************************************************************************************************
 LABEL *   CH4[23]                                                                                                                                                       
                                                                                         DATE: 21-Jul-26          TIME: 15:51:33  
 **********************************************************************************************************************************

 SHA1:             6d9f1312673b6313bee3f063234a8989bae25437
 **********************************************************************************************************************************

 Memory per process:       358 MW
 Total memory per node:   5250 MW
 Total GA space:          1313 MW

 GA preallocation disabled
 GA check enabled

 Variable memory set to 358.0 MW


 Geometry recognized as XYZ


 SETTING BASIS          =    CC-PVTZ-F12


 Using spherical harmonics

 Library entry C      S cc-pVTZ-F12          selected for orbital group  1
 Library entry C      P cc-pVTZ-F12          selected for orbital group  1
 Library entry C      D cc-pVTZ-F12          selected for orbital group  1
 Library entry C      F cc-pVTZ-F12          selected for orbital group  1
 Library entry H      S cc-pVTZ-F12          selected for orbital group  2
 Library entry H      P cc-pVTZ-F12          selected for orbital group  2
 Library entry H      D cc-pVTZ-F12          selected for orbital group  2


 PROGRAM * SEWARD (Integral evaluation for generally contracted gaussian basis sets)     Author: Roland Lindh, 1990

 Geometry written to block  1 of record 700


 Point group  D2  



 ATOMIC COORDINATES

 NR  ATOM    CHARGE       X              Y              Z

   1  C       6.00    0.000000000    0.000000000    0.000000000
   2  H       1.00    1.188068925    1.188068925    1.188068925
   3  H       1.00   -1.188068925   -1.188068925    1.188068925
   4  H       1.00   -1.188068925    1.188068925   -1.188068925
   5  H       1.00    1.188068925   -1.188068925   -1.188068925

 Bond lengths in Bohr (Angstrom)

 1-2  2.057795741  1-3  2.057795741  1-4  2.057795741  1-5  2.057795741
     ( 1.088938611)     ( 1.088938611)     ( 1.088938611)     ( 1.088938611)

 Bond angles

  2-1-3  109.47122063   2-1-4  109.47122063   2-1-5  109.47122063   3-1-4  109.47122063

  3-1-5  109.47122063   4-1-5  109.47122063

 NUCLEAR CHARGE:                   10
 NUMBER OF PRIMITIVE AOS:         156
 NUMBER OF SYMMETRY AOS:          143
 NUMBER OF CONTRACTIONS:          125   (   32A   +   31B3  +   31B2  +   31B1  )
 NUMBER OF INNER CORE ORBITALS:     0   (    0A   +    0B3  +    0B2  +    0B1  )
 NUMBER OF OUTER CORE ORBITALS:     1   (    1A   +    0B3  +    0B2  +    0B1  )
 NUMBER OF VALENCE ORBITALS:        8   (    2A   +    2B3  +    2B2  +    2B1  )


 NUCLEAR REPULSION ENERGY 13.44848474


 Eigenvalues of metric

         1 0.834E-04 0.645E-03 0.858E-03 0.204E-02 0.671E-02 0.671E-02 0.131E-01 0.244E-01
         2 0.355E-03 0.579E-03 0.188E-02 0.408E-02 0.710E-02 0.108E-01 0.150E-01 0.194E-01
         3 0.355E-03 0.579E-03 0.188E-02 0.408E-02 0.710E-02 0.108E-01 0.150E-01 0.194E-01
         4 0.355E-03 0.579E-03 0.188E-02 0.408E-02 0.710E-02 0.108E-01 0.150E-01 0.194E-01


 Contracted 2-electron integrals neglected if value below      1.0D-11
 AO integral compression algorithm  1   Integral accuracy      1.0D-11

     62.390 MB (compressed) written to integral file ( 59.7%)

     Node minimum: 3.670 MB, node maximum: 8.389 MB


 NUMBER OF SORTED TWO-ELECTRON INTEGRALS:     723699.     BUFFER LENGTH:  32768
 NUMBER OF SEGMENTS:   1  SEGMENT LENGTH:     723699      RECORD LENGTH: 524288

 Memory used in sort:       1.28 MW

 SORT1 READ    13137387. AND WROTE      698266. INTEGRALS IN      2 RECORDS. CPU TIME:     0.20 SEC, REAL TIME:     0.20 SEC
 SORT2 READ     7653502. AND WROTE     7940496. INTEGRALS IN    352 RECORDS. CPU TIME:     0.02 SEC, REAL TIME:     0.02 SEC

 Node minimum:      719442.  Node maximum:      732573. integrals

 OPERATOR DM      FOR CENTER  0  COORDINATES:    0.000000    0.000000    0.000000


 **********************************************************************************************************************************
 DATASETS  * FILE   NREC   LENGTH (MB)   RECORD NAMES
              1      18       29.26       500      610      700      900      950      970     1000      129      960     1100   
                                          VAR    BASINP    GEOM    SYMINP    ZMAT    AOBASIS   BASIS     P2S    ABASIS      S 
                                         1400     1410     1200     1210     1080     1600     1650     1700   
                                           T        V       H0       H01     AOSYM     SMH    MOLCAS    OPER   

 PROGRAMS   *          TOTAL         INT
 CPU TIMES  *           0.62        0.47
 REAL TIME  *           0.67 SEC
 DISK USED  *          29.68 MB (local),      363.92 MB (total)
 GA USED    *           0.00 MB       (max)       0.00 MB       (current)
 **********************************************************************************************************************************


 Program * Restricted Hartree-Fock

 Orbital guess generated from atomic densities. Full valence occupancy:    3   2   2   2

 Initial occupancy:   2   1   1   1

 NELEC=   10   SYM=1   MS2= 0   THRE=1.0D-08   THRD=3.2D-06   THRG=3.2D-06  HFMA2=F  DIIS_START=2   DIIS_MAX=10   DIIS_INCORE=F

 Level shifts:    0.00 (CLOSED)    0.00 (OPEN)    0.30 (GAP_MIN)

 ITER           ETOT              DE          GRAD        DDIFF     DIIS  NEXP   TIME(IT)  TIME(TOT)  DIAG
   1      -40.19698967     -40.19698967     0.00D+00     0.11D+00     0     0       0.00      0.01    start
   2      -40.21329156      -0.01630189     0.93D-02     0.10D-01     1     0       0.00      0.01    diag
   3      -40.21544572      -0.00215416     0.36D-02     0.28D-02     2     0       0.00      0.01    diag
   4      -40.21576050      -0.00031478     0.93D-03     0.11D-02     3     0       0.00      0.01    diag
   5      -40.21576601      -0.00000551     0.12D-03     0.20D-03     4     0       0.00      0.02    diag
   6      -40.21576605      -0.00000004     0.99D-05     0.30D-04     5     0       0.00      0.02    diag
   7      -40.21576605      -0.00000000     0.79D-06     0.34D-05     6     0       0.00      0.02    diag
   8      -40.21576605      -0.00000000     0.55D-07     0.26D-06     7     0       0.00      0.02    fixocc
   9      -40.21576605      -0.00000000     0.42D-08     0.72D-08     0     0       0.00      0.03    diag

 Final occupancy:   2   1   1   1

 !RHF STATE 1.1 Energy                -40.215766046309
  RHF One-electron energy             -79.761142230311
  RHF Two-electron energy              26.096891445249
  RHF Kinetic energy                   40.171813201126
  RHF Nuclear energy                   13.448484738753
  RHF Virial quotient                  -1.001094121517

 !RHF STATE 1.1 Dipole moment           0.00000000     0.00000000     0.00000000
 Dipole moment /Debye                   0.00000000     0.00000000     0.00000000

 ELECTRON ORBITALS
 =================

  Orbital  Occupation    Energy    Cen Mu Typ  Coefficients
    1.1     2.00000   -11.20588     1  1  s        1.00064
    2.1     2.00000    -0.94276     1  2  s        0.80299    2  1  s        0.72995
    1.2     2.00000    -0.54501     1  1  px       0.68358    2  1  s        0.87613
    1.3     2.00000    -0.54501     1  1  py       0.68358    2  1  s        0.87613
    1.4     2.00000    -0.54501     1  1  pz       0.68358    2  1  s        0.87613


 HOMO      1.4    -0.545013 =     -14.8305eV
 LUMO      3.1     0.061055 =       1.6614eV
 LUMO-HOMO         0.606068 =      16.4919eV

 Orbitals saved in record  2100.2


 **********************************************************************************************************************************
 DATASETS  * FILE   NREC   LENGTH (MB)   RECORD NAMES
              1      18       29.27       500      610      700      900      950      970     1000      129      960     1100   
                                          VAR    BASINP    GEOM    SYMINP    ZMAT    AOBASIS   BASIS     P2S    ABASIS      S 
                                         1400     1410     1200     1210     1080     1600     1650     1700   
                                           T        V       H0       H01     AOSYM     SMH    MOLCAS    OPER   

              2       4        0.52       700     1000      520     2100   
                                         GEOM     BASIS   MCVARS     RHF  

 PROGRAMS   *          TOTAL      HF-SCF         INT
 CPU TIMES  *           0.67        0.06        0.47
 REAL TIME  *           1.11 SEC
 DISK USED  *          29.87 MB (local),      366.05 MB (total)
 GA USED    *           0.00 MB       (max)       0.00 MB       (current)
 **********************************************************************************************************************************


 PROGRAM * CCSD (Closed-shell coupled cluster)     Authors: C. Hampel, H.-J. Werner, 1991, M. Deegan, P.J. Knowles, 1992

                                  CCSD-F12 implementation by  H.-J. Werner, 2007

                   Density fitting integral evaluation by F.R. Manby, 2003,2007, G. Knizia, 2010


 Generating basis VTZ-F12-JKFIT
  Atom=C        basis=aug-cc-pVTZ/JKFIT
  Atom=H        basis=aug-cc-pVTZ/JKFIT
 Number of basis functions:     288

 Generating basis CC-PVTZ-F12_OPT
  Atom=C        basis=cc-pVTZ-F12_OPT
  Atom=H        basis=cc-pVTZ-F12_OPT
 Number of basis functions:     239

 Generating basis CC-PVTZ-F12-MP2FIT
  Atom=C        basis=aug-cc-pVTZ/MP2FIT
  Atom=H        basis=aug-cc-pVTZ/MP2FIT
 Number of basis functions:     290


 Convergence thresholds:  THRVAR = 1.00D-08  THRDEN = 1.00D-06

 CCSD(T)     terms to be evaluated (factor= 1.000)


 Number of core orbitals:           1 (   1   0   0   0 )
 Number of closed-shell orbitals:   4 (   1   1   1   1 )
 Number of external orbitals:     120 (  30  30  30  30 )

 Molecular orbitals read from record     2100.2  Type=RHF/CANONICAL (state 1.1)

 MP2-F12 correlation treatment (H.-J. Werner, 2006)
 ==================================================

 Using MP2-F12 with ansatz 3C(FIX)

 Using projected zeroth-order Hamiltonian (+Z)

 FOCKRIB=T FOCKRIC=T FOCKRIP=T CABSP=T CABSA=T CABSK=T CABSF=T GBC=F EBC=F DMAT=T NOFIK=T NOPAO=1 SOLVE=-1  USEPAO=0
 EXCH_A= T EXCH_B= F EXCH_C= F EXCH_P= F

 Geminal basis:    OPTFULL  GEM_TYPE=SLATER  BETA=1.0  NGEM=6

 Optimizing Gaussian exponents for each gem_beta

 Geminal optimization for beta= 1.0000
 Weight function:   m=0, omega= 1.4646

 Augmented Hessian optimization of geminal fit. Trust ratio= 0.40000
 Convergence reached after   2 iterations. Final gradient= 8.60D-16, Step= 4.23D-06, Delta= 1.28D-09

 Alpha:                 0.19532     0.81920     2.85917     9.50073    35.69989   197.79328
 Coeff:                 0.27070     0.30552     0.18297     0.10986     0.06810     0.04224


 Symmetry turned off. Reference energy:        -40.215766046309

 All pairs explicitly correlated. Number of r12-pairs:           10

 Excluding core orbitals from MO domains

 AO(A)-basis ORBITAL           loaded. Number of functions:     125
 RI(R)-basis CC-PVTZ-F12/OPTRI loaded. Number of functions:     239
 DF-basis VTZ-F12/JKFIT        loaded. Number of functions:     288

 Screening thresholds:   THRAO=  1.00D-14  THRMO=  1.00D-14  THRPROD=  1.00D-14
                         THRSW=  1.00D-14  THROV=  1.00D-14  THRAOF12= 1.00D-08

 CPU time for Fock operators                      0.07 sec

 Construction of ABS:
 Smallest eigenvalue of S          4.84E-04  (threshold= 1.00E-08)
 Ratio eigmin/eigmax               6.32E-05  (threshold= 1.00E-09)
 Smallest eigenvalue of S kept     4.84E-04  (threshold= 4.84E-04, 0 functions deleted, 239 kept)

 Construction of CABS:
 Smallest eigenvalue of S          1.00E-06  (threshold= 1.00E-08)
 Ratio eigmin/eigmax               1.00E-06  (threshold= 1.00E-09)
 Smallest eigenvalue of S kept     1.00E-06  (threshold= 1.00E-06, 0 functions deleted, 239 kept)

 CPU time for CABS transformation                 0.02 sec
 CPU time for CABS singles                        0.02 sec

 CABS-singles contribution of  -0.00060852 patched into reference energy.
 New reference energy         -40.21637456

 AO(A)-basis ORBITAL           loaded. Number of functions:     125
 RI(R)-basis CC-PVTZ-F12/OPTRI loaded. Number of functions:     239
 DF-basis CC-PVTZ-F12/MP2FIT   loaded. Number of functions:     290

 Screening thresholds:   THRAO=  1.00D-14  THRMO=  1.00D-14  THRPROD=  1.00D-14
                         THRSW=  1.00D-14  THROV=  1.00D-14  THRAOF12= 1.00D-08

 CPU time for 3-index integral evaluation         0.12 sec
 CPU time for first  half transformation          0.00 sec (  5200.7 MFLOP/sec)
 CPU time for second half transformation          0.00 sec (    90.0 MFLOP/sec)
 CPU time for sorting                             0.01 sec
 CPU time for fitting                             0.00 sec (     0.0 MFLOP/sec)
 CPU time for tilde quantities                    0.01 sec (  2102.5 MFLOP/sec)
 CPU time for assembly                            0.03 sec (  5026.6 MFLOP/sec)
 CPU time for tranop_f12                          0.02 sec (  9833.2 MFLOP/sec)
 CPU time for f12 integrals (total)               0.26 sec, Elapsed time:      0.27 sec
 F12-matrices built in 10 passes.
 F12-matrices built in 10 passes.
 F12-matrices built in 10 passes.
 F12-matrices built in 10 passes.
 FC-matrix built in 10 passes.
 CPU time for f12 matrices (total)                0.01 sec, Elapsed time:      0.01 sec

 Diagonal F12 approximation with fixed coefficients:  TSING= 0.500,  TTRIP= 0.250 (scaled by -1/beta)

 DF-MP2-F12 energy corrections:
 ==============================
 Approx.                                    Singlet             Triplet             Total
 DF-MP2-F12/3*C(DX,FIX)                -0.016159302519     -0.001120443874     -0.017279746393
 DF-MP2-F12/3*C(FIX)                   -0.015833049869     -0.001134809901     -0.016967859770
 DF-MP2-F12/3C(FIX)                    -0.015761773758     -0.001141657333     -0.016903431091

 DF-MP2-F12 correlation energies:
 ================================
 Approx.                                    Singlet             Triplet             Ecorr            Total Energy
 DF-MP2                                -0.146111109980     -0.055662118486     -0.201773228466    -40.418147791412
 DF-MP2-F12/3*C(DX,FIX)                -0.162270412499     -0.056782562360     -0.219052974860    -40.435427537805
 DF-MP2-F12/3*C(FIX)                   -0.161944159849     -0.056796928387     -0.218741088236    -40.435115651182
 DF-MP2-F12/3C(FIX)                    -0.161872883738     -0.056803775819     -0.218676659557    -40.435051222502

 SCS-DF-MP2 energies (F_SING= 1.20000  F_TRIP= 0.62222  F_PARALLEL= 0.33333):
 ============================================================================
 SCS-DF-MP2                            -0.209967539034    -40.426342101980
 SCS-DF-MP2-F12/3*C(DX,FIX)            -0.230055867135    -40.446430430080
 SCS-DF-MP2-F12/3*C(FIX)               -0.229673302815    -40.446047865761
 SCS-DF-MP2-F12/3C(FIX)                -0.229592032106    -40.445966595052

 Symmetry restored.
 Symmetry transformation completed.

 Number of N-1 electron functions:               4
 Number of N-2 electron functions:              10
 Number of singly external CSFs:               120
 Number of doubly external CSFs:             29040
 Total number of CSFs:                       29161

 Length of J-op  integral file:              18.59 MB
 Length of K-op  integral file:              27.26 MB
 Length of 3-ext integral record:             0.00 MB

 Memory could be reduced to 2.95 Mwords without degradation in triples

 Integral transformation finished. Total CPU:       0.04 sec, npass=  1  Memory used:     0.51 MW

 Reference energy:                    -40.21637456

 Adding F12 terms to K(Cij), methodcc=6,  factor= 1.0

 ITER.      SQ.NORM     CORR.ENERGY   TOTAL ENERGY   ENERGY CHANGE        DEN1      VAR(S)    VAR(P)  DIIS     TIME  TIME/IT
   1      1.07105693    -0.21704249   -40.43341705    -0.01523272    -0.00952507  0.66D-03  0.98D-03  1  1      0.51      0.01
   2      1.07613987    -0.21790574   -40.43428031    -0.00086326    -0.00528848  0.15D-04  0.10D-03  2  2      0.52      0.01
   3      1.07781688    -0.21802641   -40.43440097    -0.00012066    -0.00118206  0.20D-05  0.66D-05  3  3      0.53      0.01
   4      1.07822933    -0.21804234   -40.43441691    -0.00001594    -0.00022169  0.12D-06  0.35D-06  4  4      0.55      0.01
   5      1.07828740    -0.21804239   -40.43441695    -0.00000004    -0.00001103  0.72D-08  0.17D-07  5  5      0.56      0.01
   6      1.07829330    -0.21804103   -40.43441559     0.00000136    -0.00000286  0.21D-09  0.90D-09  6  6      0.57      0.01
   7      1.07829366    -0.21804102   -40.43441558     0.00000001    -0.00000022  0.12D-10  0.44D-10  6  1      0.58      0.01
   8      1.07829359    -0.21804106   -40.43441562    -0.00000004     0.00000011  0.12D-11  0.27D-11  6  2      0.59      0.01

 Norm of t1 vector:      0.03338041      S-energy:    -0.00000002      T1 diagnostic:  0.00834510
                                                                       D1 diagnostic:  0.01328453
                                                                       D2 diagnostic:  0.13350068 (internal)

 Adding energy correction from Wij-K(Fij), methodcc=6  factor= 1.0

  CCSD correlation energy              -0.218041055543
  MP2-F12 correction (uncoupled)       -0.016605295880
  C*T doubles correction               -0.000290660487
  f12b correction                       0.003528788232


 Total CPU time for triples:      0.03 sec


 RESULTS
 =======

  Reference energy                    -40.215766046309
  F12 singles correction               -0.000608516637

 F12 singles corrections added to reference energy

  New reference energy                -40.216374562945

  F12a singlet correction              -0.015766739376
  F12a triplet correction              -0.001129216991
  F12a total correction                -0.016895956367

 F12a corrections for ansatz F12/3C(FIX) added to CCSD energy

  CCSD-F12a singlet pair energy        -0.180043041455
  CCSD-F12a triplet pair energy        -0.054893950051
  CCSD-F12a correlation energy         -0.234937011911

  Triples (T) contribution             -0.006574355779
  Total correlation energy             -0.241511367690

  CCSD-F12a total energy              -40.451311574856
  CCSD[T]-F12a energy                 -40.458124349986
  CCSD-T-F12a energy                  -40.457811665065
 !CCSD(T)-F12a total energy           -40.457885930635

 F12b corrections for ansatz F12/3C(FIX) added to CCSD(T)-F12a energy

  CCSD-F12b singlet pair energy        -0.176667199565
  CCSD-F12b triplet pair energy        -0.054741003709
  CCSD-F12b correlation energy         -0.231408223678

  Triples (T) contribution             -0.006574355779
  Total correlation energy             -0.237982579458

  CCSD-F12b total energy              -40.447782786624
  CCSD[T]-F12b energy                 -40.454595561754
  CCSD-T-F12b energy                  -40.454282876833
 !CCSD(T)-F12b total energy           -40.454357142403

 Timing summary (sec):

 STEP                 CPU(USER)    SYS     CPU(TOT)    WALL
 Transformation          0.04      0.00      0.04      0.04
 CCSD iterations         0.13      0.03      0.16      0.16
 Triples                 0.03      0.00      0.03      0.03
 MP2-F12                 0.42      0.01      0.43      0.43
 F12b energy             0.01      0.00      0.01      0.01

 Program statistics:

 Available memory in ccsd:               357954429
 Min. memory needed in ccsd:                135327
 Max. memory used in ccsd:                  155822
 Max. memory used in cckext:                190778 ( 9 integral passes)



 **********************************************************************************************************************************
 DATASETS  * FILE   NREC   LENGTH (MB)   RECORD NAMES
              1      18       29.27       500      610      700      900      950      970     1000      129      960     1100   
                                          VAR    BASINP    GEOM    SYMINP    ZMAT    AOBASIS   BASIS     P2S    ABASIS      S 
                                         1400     1410     1200     1210     1080     1600     1650     1700   
                                           T        V       H0       H01     AOSYM     SMH    MOLCAS    OPER   

              2       6        0.57       700     1000      520     2100     7360     7350   
                                         GEOM     BASIS   MCVARS     RHF    F12ABS    EF12   

 PROGRAMS   *          TOTAL     CCSD(T)      HF-SCF         INT
 CPU TIMES  *           1.34        0.66        0.06        0.47
 REAL TIME  *           1.81 SEC
 DISK USED  *          29.92 MB (local),      366.56 MB (total)
 SF USED    *           8.68 MB
 GA USED    *           3.05 MB       (max)       0.00 MB       (current)
 **********************************************************************************************************************************

 CCSD(T)-F12/cc-pVTZ-F12 energy=    -40.454357142403

     CCSD(T)-F12          HF-SCF
    -40.45435714    -40.21576605
 **********************************************************************************************************************************
 Molpro calculation terminated
