
 Working directory              : /scratch/molpro/JOB
 Global scratch directory       : /scratch/molpro/JOB
 Wavefunction directory         : /home/user/wfu/
 Main file repository           : /scratch/molpro/JOB

 id        : dana

 Nodes     nprocs
 n018         1
 GA implementation: MPI file
 GA implementation (serial work in mppx): MPI file

 Using customized tuning parameters: mindgm=1; mindgv=20; mindgc=4; mindgr=1; noblas=0; minvec=7
 default implementation of scratch files=df  


 Variables initialized (1025), CPU time= 0.01 sec
 ***,N2H2c
 memory,752,m;
 
 geometry={angstrom;
 N       0.00000000    0.62116800   -0.11210800
 H       0.00000000    1.01654300    0.84440800
 N      -0.00000000   -0.62116800   -0.11210800
 H      -0.00000000   -1.01654300    0.84440800}
 
 basis=cc-pvtz
 
 {rhf;
 maxit,1000;
 wf,16,1,0}
 
 {casscf;
 wf,16,1,0;
 }
 
 {mrci;
 wf,16,1,0;
 }
 
 Commands initialized (840), CPU time= 0.02 sec, 684 directives.
 Default parameters read. Elapsed time= 0.20 sec

 Checking input...
 Passed
1


                                         ***  PROGRAM SYSTEM MOLPRO  ***
                                       Copyright, TTI GmbH Stuttgart, 2015
                                    Version 2022.3 linked Wed Nov 30 13:40:34 2022


 **********************************************************************************************************************************
 LABEL *   N2H2c                                                                         
  64 bit serial version                                                                  DATE: 10-Jan-24          TIME: 16:34:54  
 **********************************************************************************************************************************

 SHA1:             e31ec9a5ea85254ab76f59d122cbdd51c71cf98b
 **********************************************************************************************************************************

 Memory per process:       752 MW
 Total memory per node:    752 MW

 GA preallocation disabled
 GA check disabled

 Variable memory set to 752.0 MW


 Geometry recognized as XYZ

 SETTING BASIS          =    CC-PVTZ


 Recomputing integrals since basis changed


 Using spherical harmonics

 Library entry N      S cc-pVTZ              selected for orbital group  1
 Library entry N      P cc-pVTZ              selected for orbital group  1
 Library entry N      D cc-pVTZ              selected for orbital group  1
 Library entry N      F cc-pVTZ              selected for orbital group  1
 Library entry H      S cc-pVTZ              selected for orbital group  2
 Library entry H      P cc-pVTZ              selected for orbital group  2
 Library entry H      D cc-pVTZ              selected for orbital group  2


 PROGRAM * SEWARD (Integral evaluation for generally contracted gaussian basis sets)     Author: Roland Lindh, 1990

 Geometry written to block  1 of record 700


 Point group  C2v 



 ATOMIC COORDINATES

 NR  ATOM    CHARGE       X              Y              Z

   1  N       7.00    0.000000000    1.173837397   -0.211853416
   2  N       7.00    0.000000000   -1.173837397   -0.211853416
   3  H       1.00    0.000000000    1.920987864    1.595699857
   4  H       1.00    0.000000000   -1.920987864    1.595699857

 Bond lengths in Bohr (Angstrom)

 1-2  2.347674795  1-3  1.955884111  2-4  1.955884111
     ( 1.242336000)     ( 1.035009299)     ( 1.035009299)

 Bond angles

  1-2-4  112.45770913   2-1-3  112.45770913

 NUCLEAR CHARGE:                   16
 NUMBER OF PRIMITIVE AOS:         128
 NUMBER OF SYMMETRY AOS:          116
 NUMBER OF CONTRACTIONS:           88   (   30A1  +   14B1  +   30B2  +   14A2  )
 NUMBER OF INNER CORE ORBITALS:     0   (    0A1  +    0B1  +    0B2  +    0A2  )
 NUMBER OF OUTER CORE ORBITALS:     2   (    1A1  +    0B1  +    1B2  +    0A2  )
 NUMBER OF VALENCE ORBITALS:       10   (    4A1  +    1B1  +    4B2  +    1A2  )


 NUCLEAR REPULSION ENERGY   32.19611566

 Eigenvalues of metric

         1 0.341E-02 0.681E-02 0.130E-01 0.370E-01 0.483E-01 0.732E-01 0.964E-01 0.118E+00
         2 0.408E-01 0.129E+00 0.303E+00 0.442E+00 0.503E+00 0.551E+00 0.769E+00 0.115E+01
         3 0.135E-02 0.284E-02 0.306E-02 0.916E-02 0.228E-01 0.264E-01 0.633E-01 0.685E-01
         4 0.291E-01 0.804E-01 0.854E-01 0.217E+00 0.354E+00 0.392E+00 0.492E+00 0.669E+00


 Contracted 2-electron integrals neglected if value below      1.0D-11
 AO integral compression algorithm  1   Integral accuracy      1.0D-11

     12.583 MB (compressed) written to integral file ( 50.8%)


 NUMBER OF SORTED TWO-ELECTRON INTEGRALS:    2024670.     BUFFER LENGTH:  32768
 NUMBER OF SEGMENTS:   1  SEGMENT LENGTH:    2024670      RECORD LENGTH: 524288

 Memory used in sort:       2.58 MW

 SORT1 READ     3036152. AND WROTE     1794902. INTEGRALS IN      6 RECORDS. CPU TIME:     0.09 SEC, REAL TIME:     0.12 SEC
 SORT2 READ     1794902. AND WROTE     2024670. INTEGRALS IN     48 RECORDS. CPU TIME:     0.19 SEC, REAL TIME:     0.21 SEC

 FILE SIZES:   FILE 1:    42.8 MBYTE,  FILE 4:    25.2 MBYTE,   TOTAL:     68.0 MBYTE

 OPERATOR DM      FOR CENTER  0  COORDINATES:    0.000000    0.000000    0.000000


 **********************************************************************************************************************************
 DATASETS  * FILE   NREC   LENGTH (MB)   RECORD NAMES
              1      19       37.05       500      610      700      900      950      970     1000      129      960     1100   
                                          VAR    BASINP    GEOM    SYMINP    ZMAT    AOBASIS   BASIS     P2S    ABASIS      S 
                                         1400     1410     1200     1210     1080     1600     1650     1300     1700   
                                           T        V       H0       H01     AOSYM     SMH    MOLCAS    ERIS     OPER   

 PROGRAMS   *        TOTAL       INT
 CPU TIMES  *         1.66      1.38
 REAL TIME  *         2.35 SEC
 DISK USED  *        65.15 MB
 **********************************************************************************************************************************


 Program * Restricted Hartree-Fock

 Orbital guess generated from atomic densities. Full valence occupancy:    5   1   5   1

 Initial occupancy:   4   1   3   0

 NELEC=   16   SYM=1   MS2= 0   THRE=1.0D-08   THRD=3.2D-06   THRG=3.2D-06  HFMA2=F  DIIS_START=2   DIIS_MAX=10   DIIS_INCORE=F

 Level shifts:    0.00 (CLOSED)    0.00 (OPEN)    0.30 (GAP_MIN)

 ITER           ETOT              DE          GRAD        DDIFF     DIIS  NEXP   TIME(IT)  TIME(TOT)  DIAG
   1     -110.00553812    -110.00553812     0.00D+00     0.16D+00     0     0       0.02      0.04    start
   2     -110.02795048      -0.02241236     0.11D-01     0.12D-01     1     0       0.01      0.05    diag
   3     -110.02910194      -0.00115147     0.24D-02     0.22D-02     2     0       0.02      0.07    diag
   4     -110.02922385      -0.00012191     0.61D-03     0.98D-03     3     0       0.02      0.09    diag
   5     -110.02922870      -0.00000485     0.13D-03     0.19D-03     4     0       0.01      0.10    diag
   6     -110.02922925      -0.00000055     0.40D-04     0.70D-04     5     0       0.02      0.12    diag
   7     -110.02922928      -0.00000003     0.82D-05     0.20D-04     6     0       0.02      0.14    diag
   8     -110.02922928      -0.00000000     0.14D-05     0.40D-05     7     0       0.01      0.15    fixocc
   9     -110.02922928      -0.00000000     0.25D-06     0.94D-06     8     0       0.02      0.17    diag
  10     -110.02922928      -0.00000000     0.38D-07     0.98D-07     0     0       0.02      0.19    diag/orth

 Final occupancy:   4   1   3   0

 !RHF STATE 1.1 Energy               -110.029229283073
  RHF One-electron energy            -212.836322309631
  RHF Two-electron energy              70.610977363650
  RHF Kinetic energy                  109.818371423614
  RHF Nuclear energy                   32.196115662909
  RHF Virial quotient                  -1.001920059975

 !RHF STATE 1.1 Dipole moment           0.00000000     0.00000000     1.19193274
 Dipole moment /Debye                   0.00000000     0.00000000     3.02959083

 Orbital energies:

           1.1          2.1          3.1          4.1          5.1          6.1
    -15.634401    -1.356442    -0.754877    -0.573754     0.126938     0.489899

           1.2          2.2          3.2
     -0.517164     0.602337     0.781458

           1.3          2.3          3.3          4.3          5.3
    -15.633050    -0.926902    -0.410594     0.186562     0.472699

           1.4          2.4
      0.122050     0.733019


 HOMO      3.3    -0.410594 =     -11.1728eV
 LUMO      1.4     0.122050 =       3.3211eV
 LUMO-HOMO         0.532644 =      14.4940eV

 Orbitals saved in record  2100.2


 **********************************************************************************************************************************
 DATASETS  * FILE   NREC   LENGTH (MB)   RECORD NAMES
              1      19       37.05       500      610      700      900      950      970     1000      129      960     1100   
                                          VAR    BASINP    GEOM    SYMINP    ZMAT    AOBASIS   BASIS     P2S    ABASIS      S 
                                         1400     1410     1200     1210     1080     1600     1650     1300     1700   
                                           T        V       H0       H01     AOSYM     SMH    MOLCAS    ERIS     OPER   

              2       4        0.44       700     1000      520     2100   
                                         GEOM     BASIS   MCVARS     RHF  

 PROGRAMS   *        TOTAL   RHF-SCF       INT
 CPU TIMES  *         1.85      0.19      1.38
 REAL TIME  *         2.57 SEC
 DISK USED  *        65.15 MB
 **********************************************************************************************************************************

 PROGRAM * MULTI (Direct Multiconfiguration SCF)       Authors: P.J. Knowles, H.-J. Werner (1984)
                                                                D.A. Kreplin, P.J. Knowles, H.-J. Werner (2019)


 Number of closed-shell orbitals:   2 (    1    0    1    0)
 Number of active  orbitals:       10 (    4    1    4    1)
 Number of external orbitals:      76 (   25   13   25   13)

 State symmetry 1

 Number of active electrons:  12    Spin symmetry=Singlet   Space symmetry=1
 Number of states:             1
 Number of CSFs:            3620   (11124 determinants, 44100 intermediate states)

 Molecular orbitals read from record     2100.2  Type=RHF/CANONICAL  

 Wavefunction dump at record             2140.2

 Convergence thresholds  0.10E-04 (gradient)  0.10E-05 (energy)
 
 Number of orbital rotations:  284  ( 8 closed/active, 50 closed/virtual, 0 active/active, 226 active/virtual )
 Total number of variables:    11408
 
 Second-order MCSCF: L-BFGS accelerated
 
 ITER  MIC  NCI  NEG     ENERGY(VAR)    ENERGY(PROJ) ENERGY CHANGE       GRAD(0)  GRAD(ORB)   GRAD(CI)      STEP      TIME
   1   29   39    0   -110.07237873    -110.17428356   -0.10190483    0.06087093 0.00054974 0.00021043  0.15E+01      1.25
   2   15   30    0   -110.17310138    -110.17406012   -0.00095875    0.03166127 0.00003885 0.00012428  0.13E+00      2.06
   3   19   31    0   -110.17406092    -110.17406094   -0.00000001    0.00010609 0.00000005 0.00000003  0.50E-03      2.99

 CONVERGENCE REACHED!  Final gradient:    0.00000002 ( 0.15E-07)
                       Final energy:   -110.17406094
 
 First order charge density matrix for state 1.1 saved on record 2140.2 (density set 1)
 
 Results for state 1.1
 =====================
 !MCSCF STATE 1.1 Energy                      -110.174060935722
 Nuclear energy                                 32.19611566
 Kinetic energy                                110.23605443
 One electron energy                          -212.92781305
 Two electron energy                            70.55763645
 Virial ratio                                    1.99943763
 
 !MCSCF STATE 1.1 Dipole moment                  0.00000000     0.00000000     1.08953202
 Dipole moment /Debye                            0.00000000     0.00000000     2.76931416
 
 No non-zero expectation values
 
 
 Natural orbital dump at molpro section 2140.2 (Orbital set 2)


 **********************************************************************************************************************************
 DATASETS  * FILE   NREC   LENGTH (MB)   RECORD NAMES
              1      20       38.94       500      610      700      900      950      970     1000      129      960     1100   
                                          VAR    BASINP    GEOM    SYMINP    ZMAT    AOBASIS   BASIS     P2S    ABASIS      S 
                                         1400     1410     1200     1210     1080     1600     1650     1300     1700     1380   
                                           T        V       H0       H01     AOSYM     SMH    MOLCAS    ERIS     OPER     JKOP   

              2       5        0.63       700     1000      520     2100     2140   
                                         GEOM     BASIS   MCVARS     RHF     MCSCF   

 PROGRAMS   *        TOTAL    CASSCF   RHF-SCF       INT
 CPU TIMES  *         4.87      3.01      0.19      1.38
 REAL TIME  *         5.80 SEC
 DISK USED  *        65.15 MB
 **********************************************************************************************************************************


 PROGRAM * CI (Multireference internally contracted CI)     Authors: H.-J. Werner, P.J. Knowles, 1987


 Convergence thresholds:  THRVAR = 1.00D-08  THRDEN = 1.00D-06

 Number of optimized states: 1  Roots:    1
 Number of reference states: 1  Roots:    1

 Reference symmetry:                   1   Singlet 
 Number of electrons:                 16
 Maximum number of shells:             7
 Maximum number of spin couplings:   132

 Reference space:     1885 conf     3620 CSFs
 N elec internal:     6765 conf    13860 CSFs
 N-1 el internal:     8350 conf    27720 CSFs
 N-2 el internal:     8953 conf    49104 CSFs

 Number of electrons in valence space:                     12
 Maximum number of open shell orbitals in reference space:  8
 Maximum number of open shell orbitals in internal spaces: 12


 Number of core orbitals:           2 (   1   0   1   0 )
 Number of active  orbitals:       10 (   4   1   4   1 )
 Number of external orbitals:      76 (  25  13  25  13 )

 Molecular orbitals read from record     2140.2  Type=MCSCF/NATURAL (state 1.1)

 Integral transformation finished. Total CPU:   0.04 sec, npass=  1  Memory used:   0.17 MW


 Number of p-space configurations:   1

 Reference wavefunction optimized for reference space (refopt=1)

 State     Reference Energy 
     1      -110.17406094

 Number of blocks in overlap matrix:     8   Smallest eigenvalue:  0.35D-02
 Number of N-2 electron functions:     100
 Number of N-1 electron functions:   27720

 Number of internal configurations:                 3620
 Number of singly external configurations:        529704
 Number of doubly external configurations:         75172
 Total number of contracted configurations:       608496
 Total number of uncontracted configurations:   35948572

 Diagonal Coupling coefficients finished.               Storage: 2000025 words, CPU-Time:      1.64 seconds.
 Energy denominators for pairs finished in 1 passes.    Storage:  558416 words, CPU-time:      0.01 seconds.

  ITER. STATE  ROOT     SQ.NORM     CORR.ENERGY   TOTAL ENERGY   ENERGY CHANGE       DEN1      VAR(S)    VAR(P)      TIME
    1     1     1     1.00000000     0.00000000  -110.17406094     0.00000000    -0.26931139  0.36D-01  0.30D-01     2.74
    2     1     1     1.06362202    -0.26568432  -110.43974526    -0.26568432    -0.00915984  0.15D-02  0.91D-03    15.26
    3     1     1     1.06672588    -0.27459690  -110.44865783    -0.00891258    -0.00070930  0.12D-03  0.61D-04    24.40
    4     1     1     1.06860592    -0.27530104  -110.44936197    -0.00070414    -0.00008755  0.18D-04  0.63D-05    35.81
    5     1     1     1.06919480    -0.27538552  -110.44944646    -0.00008449    -0.00001054  0.21D-05  0.68D-06    47.64
    6     1     1     1.06927618    -0.27539551  -110.44945644    -0.00000998    -0.00000150  0.31D-06  0.84D-07    56.28
    7     1     1     1.06927474    -0.27539693  -110.44945787    -0.00000143    -0.00000024  0.49D-07  0.13D-07    63.90
    8     1     1     1.06927616    -0.27539716  -110.44945810    -0.00000023    -0.00000004  0.86D-08  0.20D-08    71.04
    9     1     1     1.06927931    -0.27539720  -110.44945814    -0.00000004    -0.00000001  0.19D-08  0.37D-09    78.10


 =====================================
 Analysis of CPU times by interactions
 =====================================

       I      S      P

 I   1.4%
 S   1.5%  19.5%
 P   4.0%  57.8%  12.3%

 Initialization:   2.5%
 Other:            1.0%

 Total CPU:       78.1 seconds
 =====================================



 Reference coefficients greater than 0.0500000
 =============================================
 2220222000           0.9295403
 2220022002          -0.1657521
 22/0\220/\           0.0557472
 2220202002          -0.0551849
 2/20\22/0\          -0.0531354
 22/0/220\\           0.0519237


 RESULTS FOR STATE 1.1
 =====================

 Coefficient of reference function:   C(0) = 0.96669194 (fixed)   0.96706222 (relaxed)

 Energy contributions of configuration classes

 CLASS          SQ.NORM        ECORR1        ECORR2
 +++++++++++++++++++++++++++++++++++++++++++++++++++
 Internals    0.00076623   -0.00000000   -0.00019736
 Singles      0.03419053   -0.10725512   -0.10903081
 Pairs        0.03514186   -0.16814191   -0.16616904
 Total        1.07009861   -0.27539703   -0.27539720
 +++++++++++++++++++++++++++++++++++++++++++++++++++


 Reference energy                    -110.17406094
 Nuclear energy                        32.19611566
 Kinetic energy                       110.45915578
 One electron energy                 -212.73084325
 Two electron energy                   70.08526945
 Virial quotient                       -0.99991221
 Correlation energy                    -0.27539720
 !MRCI STATE 1.1 Energy              -110.449458139369

 Properties without orbital relaxation:

 !MRCI STATE 1.1 Dipole moment          0.00000000     0.00000000     1.10238604
 Dipole moment /Debye                   0.00000000     0.00000000     2.80198583

 Cluster corrected energies          -110.46876310 (Davidson, fixed reference)
 Cluster corrected energies          -110.46853747 (Davidson, relaxed reference)

 Cluster corrected energies          -110.46632161 (Pople, fixed reference)
 Cluster corrected energies          -110.46611528 (Pople, relaxed reference)



 **********************************************************************************************************************************
 DATASETS  * FILE   NREC   LENGTH (MB)   RECORD NAMES
              1      20       38.94       500      610      700      900      950      970     1000      129      960     1100   
                                          VAR    BASINP    GEOM    SYMINP    ZMAT    AOBASIS   BASIS     P2S    ABASIS      S 
                                         1400     1410     1200     1210     1080     1600     1650     1300     1700     1380   
                                           T        V       H0       H01     AOSYM     SMH    MOLCAS    ERIS     OPER     JKOP   

              2       5        0.63       700     1000      520     2100     2140   
                                         GEOM     BASIS   MCVARS     RHF     MCSCF   

 PROGRAMS   *        TOTAL      MRCI    CASSCF   RHF-SCF       INT
 CPU TIMES  *        83.77     78.90      3.01      0.19      1.38
 REAL TIME  *        85.92 SEC
 DISK USED  *       134.77 MB
 **********************************************************************************************************************************

 MRCI/cc-pVTZ energy=   -110.449458139369

            MRCI          CASSCF         RHF-SCF
   -110.44945814   -110.17406094   -110.02922928
 **********************************************************************************************************************************
 Molpro calculation terminated
